<?xml version="1.0" encoding="UTF-8"?>

<!-- generated on 2025-04-23 16:38:31 by Eclipse SUMO sumo Version 1.22.0
<sumoConfiguration xmlns:xsi="http://www.w3.org/2001/XMLSchema-instance" xsi:noNamespaceSchemaLocation="http://sumo.dlr.de/xsd/sumoConfiguration.xsd">

    <input>
        <net-file value="nets/cliente1.net.xml"/>
        <route-files value="nets/cliente1.rou.xml"/>
    </input>

    <output>
        <tripinfo-output value="output/tripinfo_cliente1.xml"/>
    </output>

    <processing>
        <time-to-teleport value="-1"/>
        <waiting-time-memory value="1000"/>
        <max-depart-delay value="-1"/>
    </processing>

    <traci_server>
        <remote-port value="61268"/>
    </traci_server>

    <random_number>
        <random value="true"/>
    </random_number>

</sumoConfiguration>
-->

<tripinfos xmlns:xsi="http://www.w3.org/2001/XMLSchema-instance" xsi:noNamespaceSchemaLocation="http://sumo.dlr.de/xsd/tripinfo_file.xsd">
    <tripinfo id="flow_1.0" depart="0.00" departLane="v11_0" departPos="5.10" departSpeed="7.79" departDelay="0.00" arrival="24.00" arrivalLane="E0_0" arrivalPos="104.53" arrivalSpeed="12.73" duration="24.00" routeLength="215.56" waitingTime="0.00" waitingCount="0" stopTime="0.00" timeLoss="2.15" rerouteNo="0" devices="tripinfo_flow_1.0 routing_flow_1.0" vType="DEFAULT_VEHTYPE" speedFactor="0.94" vaporized=""/>
    <tripinfo id="flow_1.1" depart="2.00" departLane="v11_0" departPos="5.10" departSpeed="6.96" departDelay="0.00" arrival="26.00" arrivalLane="E0_0" arrivalPos="104.53" arrivalSpeed="14.48" duration="24.00" routeLength="215.56" waitingTime="0.00" waitingCount="0" stopTime="0.00" timeLoss="4.40" rerouteNo="0" devices="tripinfo_flow_1.1 routing_flow_1.1" vType="DEFAULT_VEHTYPE" speedFactor="1.06" vaporized=""/>
    <tripinfo id="flow_1.2" depart="8.00" departLane="v11_0" departPos="5.10" departSpeed="7.85" departDelay="0.00" arrival="32.00" arrivalLane="E0_0" arrivalPos="104.53" arrivalSpeed="12.06" duration="24.00" routeLength="215.56" waitingTime="0.00" waitingCount="0" stopTime="0.00" timeLoss="2.37" rerouteNo="0" devices="tripinfo_flow_1.2 routing_flow_1.2" vType="DEFAULT_VEHTYPE" speedFactor="0.94" vaporized=""/>
    <tripinfo id="flow_2.1" depart="18.00" departLane="E1_1" departPos="5.10" departSpeed="12.53" departDelay="0.00" arrival="37.00" arrivalLane="h12_0" arrivalPos="94.90" arrivalSpeed="11.47" duration="19.00" routeLength="197.71" waitingTime="0.00" waitingCount="0" stopTime="0.00" timeLoss="2.74" rerouteNo="0" devices="tripinfo_flow_2.1 routing_flow_2.1" vType="DEFAULT_VEHTYPE" speedFactor="0.90" vaporized=""/>
    <tripinfo id="flow_2.2" depart="19.00" departLane="E1_0" departPos="5.10" departSpeed="12.68" departDelay="0.00" arrival="40.00" arrivalLane="h12_0" arrivalPos="94.90" arrivalSpeed="12.26" duration="21.00" routeLength="197.71" waitingTime="0.00" waitingCount="0" stopTime="0.00" timeLoss="4.52" rerouteNo="0" devices="tripinfo_flow_2.2 routing_flow_2.2" vType="DEFAULT_VEHTYPE" speedFactor="0.91" vaporized=""/>
    <tripinfo id="flow_2.3" depart="27.00" departLane="E1_1" departPos="5.10" departSpeed="11.29" departDelay="0.00" arrival="46.00" arrivalLane="h12_0" arrivalPos="94.90" arrivalSpeed="10.34" duration="19.00" routeLength="197.71" waitingTime="0.00" waitingCount="0" stopTime="0.00" timeLoss="1.31" rerouteNo="0" devices="tripinfo_flow_2.3 routing_flow_2.3" vType="DEFAULT_VEHTYPE" speedFactor="0.81" vaporized=""/>
    <tripinfo id="flow_2.4" depart="28.00" departLane="E1_1" departPos="5.10" departSpeed="8.10" departDelay="0.00" arrival="48.00" arrivalLane="h12_0" arrivalPos="94.90" arrivalSpeed="13.51" duration="20.00" routeLength="197.71" waitingTime="0.00" waitingCount="0" stopTime="0.00" timeLoss="7.55" rerouteNo="0" devices="tripinfo_flow_2.4 routing_flow_2.4" vType="DEFAULT_VEHTYPE" speedFactor="1.18" vaporized=""/>
    <tripinfo id="flow_2.0" depart="7.00" departLane="E1_0" departPos="5.10" departSpeed="11.61" departDelay="0.00" arrival="51.00" arrivalLane="h12_0" arrivalPos="94.90" arrivalSpeed="10.42" duration="44.00" routeLength="198.14" waitingTime="18.00" waitingCount="2" stopTime="0.00" timeLoss="26.13" rerouteNo="0" devices="tripinfo_flow_2.0 routing_flow_2.0" vType="DEFAULT_VEHTYPE" speedFactor="0.84" vaporized=""/>
    <tripinfo id="flow_1.3" depart="20.00" departLane="v11_0" departPos="5.10" departSpeed="8.50" departDelay="0.00" arrival="53.00" arrivalLane="E0_0" arrivalPos="104.53" arrivalSpeed="14.06" duration="33.00" routeLength="215.56" waitingTime="7.00" waitingCount="1" stopTime="0.00" timeLoss="12.83" rerouteNo="0" devices="tripinfo_flow_1.3 routing_flow_1.3" vType="DEFAULT_VEHTYPE" speedFactor="1.02" vaporized=""/>
    <tripinfo id="flow_1.4" depart="25.00" departLane="v11_0" departPos="5.10" departSpeed="9.00" departDelay="0.00" arrival="55.00" arrivalLane="E0_0" arrivalPos="104.53" arrivalSpeed="13.97" duration="30.00" routeLength="215.56" waitingTime="4.00" waitingCount="1" stopTime="0.00" timeLoss="10.73" rerouteNo="0" devices="tripinfo_flow_1.4 routing_flow_1.4" vType="DEFAULT_VEHTYPE" speedFactor="1.08" vaporized=""/>
    <tripinfo id="flow_1.5" depart="26.00" departLane="v11_0" departPos="5.10" departSpeed="3.55" departDelay="0.00" arrival="57.00" arrivalLane="E0_0" arrivalPos="104.53" arrivalSpeed="13.48" duration="31.00" routeLength="215.56" waitingTime="3.00" waitingCount="1" stopTime="0.00" timeLoss="10.82" rerouteNo="0" devices="tripinfo_flow_1.5 routing_flow_1.5" vType="DEFAULT_VEHTYPE" speedFactor="1.02" vaporized=""/>
    <tripinfo id="flow_1.6" depart="37.00" departLane="v11_0" departPos="5.10" departSpeed="8.49" departDelay="0.00" arrival="60.00" arrivalLane="E0_0" arrivalPos="104.53" arrivalSpeed="14.16" duration="23.00" routeLength="215.56" waitingTime="0.00" waitingCount="0" stopTime="0.00" timeLoss="2.34" rerouteNo="0" devices="tripinfo_flow_1.6 routing_flow_1.6" vType="DEFAULT_VEHTYPE" speedFactor="1.02" vaporized=""/>
    <tripinfo id="flow_1.7" depart="42.00" departLane="v11_0" departPos="5.10" departSpeed="8.23" departDelay="0.00" arrival="66.00" arrivalLane="E0_0" arrivalPos="104.53" arrivalSpeed="13.46" duration="24.00" routeLength="215.56" waitingTime="0.00" waitingCount="0" stopTime="0.00" timeLoss="2.55" rerouteNo="0" devices="tripinfo_flow_1.7 routing_flow_1.7" vType="DEFAULT_VEHTYPE" speedFactor="0.99" vaporized=""/>
    <tripinfo id="flow_1.8" depart="43.00" departLane="v11_0" departPos="5.10" departSpeed="3.71" departDelay="0.00" arrival="67.00" arrivalLane="E0_0" arrivalPos="104.53" arrivalSpeed="14.15" duration="24.00" routeLength="215.56" waitingTime="0.00" waitingCount="0" stopTime="0.00" timeLoss="5.49" rerouteNo="0" devices="tripinfo_flow_1.8 routing_flow_1.8" vType="DEFAULT_VEHTYPE" speedFactor="1.11" vaporized=""/>
    <tripinfo id="flow_2.6" depart="57.00" departLane="E1_1" departPos="5.10" departSpeed="12.74" departDelay="0.00" arrival="77.00" arrivalLane="h12_0" arrivalPos="94.90" arrivalSpeed="12.59" duration="20.00" routeLength="197.71" waitingTime="0.00" waitingCount="0" stopTime="0.00" timeLoss="4.48" rerouteNo="0" devices="tripinfo_flow_2.6 routing_flow_2.6" vType="DEFAULT_VEHTYPE" speedFactor="0.92" vaporized=""/>
    <tripinfo id="flow_2.7" depart="63.00" departLane="E1_0" departPos="5.10" departSpeed="14.29" departDelay="0.00" arrival="79.00" arrivalLane="h12_0" arrivalPos="94.90" arrivalSpeed="13.44" duration="16.00" routeLength="197.71" waitingTime="0.00" waitingCount="0" stopTime="0.00" timeLoss="1.95" rerouteNo="0" devices="tripinfo_flow_2.7 routing_flow_2.7" vType="DEFAULT_VEHTYPE" speedFactor="1.03" vaporized=""/>
    <tripinfo id="flow_2.8" depart="68.00" departLane="E1_1" departPos="5.10" departSpeed="16.21" departDelay="0.00" arrival="81.00" arrivalLane="h12_0" arrivalPos="94.90" arrivalSpeed="15.56" duration="13.00" routeLength="197.71" waitingTime="0.00" waitingCount="0" stopTime="0.00" timeLoss="0.65" rerouteNo="0" devices="tripinfo_flow_2.8 routing_flow_2.8" vType="DEFAULT_VEHTYPE" speedFactor="1.17" vaporized=""/>
    <tripinfo id="flow_2.9" depart="72.00" departLane="E1_1" departPos="5.10" departSpeed="14.47" departDelay="0.00" arrival="87.00" arrivalLane="h12_0" arrivalPos="94.90" arrivalSpeed="14.21" duration="15.00" routeLength="197.71" waitingTime="0.00" waitingCount="0" stopTime="0.00" timeLoss="0.68" rerouteNo="0" devices="tripinfo_flow_2.9 routing_flow_2.9" vType="DEFAULT_VEHTYPE" speedFactor="1.04" vaporized=""/>
    <tripinfo id="flow_1.9" depart="54.00" departLane="v11_0" departPos="5.10" departSpeed="8.86" departDelay="0.00" arrival="93.00" arrivalLane="E0_0" arrivalPos="104.53" arrivalSpeed="14.76" duration="39.00" routeLength="215.56" waitingTime="13.00" waitingCount="1" stopTime="0.00" timeLoss="19.94" rerouteNo="0" devices="tripinfo_flow_1.9 routing_flow_1.9" vType="DEFAULT_VEHTYPE" speedFactor="1.06" vaporized=""/>
    <tripinfo id="flow_1.10" depart="66.00" departLane="v11_0" departPos="5.10" departSpeed="7.10" departDelay="0.00" arrival="97.00" arrivalLane="E0_0" arrivalPos="104.53" arrivalSpeed="10.69" duration="31.00" routeLength="215.56" waitingTime="0.00" waitingCount="0" stopTime="0.00" timeLoss="7.07" rerouteNo="0" devices="tripinfo_flow_1.10 routing_flow_1.10" vType="DEFAULT_VEHTYPE" speedFactor="0.85" vaporized=""/>
    <tripinfo id="flow_1.11" depart="69.00" departLane="v11_0" departPos="5.10" departSpeed="8.54" departDelay="0.00" arrival="99.00" arrivalLane="E0_0" arrivalPos="104.53" arrivalSpeed="14.46" duration="30.00" routeLength="215.56" waitingTime="0.00" waitingCount="0" stopTime="0.00" timeLoss="10.22" rerouteNo="0" devices="tripinfo_flow_1.11 routing_flow_1.11" vType="DEFAULT_VEHTYPE" speedFactor="1.06" vaporized=""/>
    <tripinfo id="flow_1.12" depart="78.00" departLane="v11_0" departPos="5.10" departSpeed="9.41" departDelay="0.00" arrival="101.00" arrivalLane="E0_0" arrivalPos="104.53" arrivalSpeed="15.18" duration="23.00" routeLength="215.56" waitingTime="0.00" waitingCount="0" stopTime="0.00" timeLoss="4.10" rerouteNo="0" devices="tripinfo_flow_1.12 routing_flow_1.12" vType="DEFAULT_VEHTYPE" speedFactor="1.13" vaporized=""/>
    <tripinfo id="flow_1.13" depart="87.00" departLane="v11_0" departPos="5.10" departSpeed="9.01" departDelay="0.00" arrival="108.00" arrivalLane="E0_0" arrivalPos="104.53" arrivalSpeed="14.28" duration="21.00" routeLength="215.56" waitingTime="0.00" waitingCount="0" stopTime="0.00" timeLoss="1.82" rerouteNo="0" devices="tripinfo_flow_1.13 routing_flow_1.13" vType="DEFAULT_VEHTYPE" speedFactor="1.08" vaporized=""/>
    <tripinfo id="flow_2.10" depart="73.00" departLane="E1_1" departPos="5.10" departSpeed="10.74" departDelay="0.00" arrival="113.00" arrivalLane="h12_0" arrivalPos="94.90" arrivalSpeed="13.60" duration="40.00" routeLength="197.71" waitingTime="17.00" waitingCount="1" stopTime="0.00" timeLoss="25.39" rerouteNo="0" devices="tripinfo_flow_2.10 routing_flow_2.10" vType="DEFAULT_VEHTYPE" speedFactor="0.99" vaporized=""/>
    <tripinfo id="flow_2.11" depart="74.00" departLane="E1_1" departPos="5.10" departSpeed="6.75" departDelay="0.00" arrival="115.00" arrivalLane="h12_0" arrivalPos="94.90" arrivalSpeed="14.35" duration="41.00" routeLength="197.71" waitingTime="16.00" waitingCount="1" stopTime="0.00" timeLoss="27.78" rerouteNo="0" devices="tripinfo_flow_2.11 routing_flow_2.11" vType="DEFAULT_VEHTYPE" speedFactor="1.11" vaporized=""/>
    <tripinfo id="flow_2.13" depart="82.00" departLane="E1_1" departPos="5.10" departSpeed="15.49" departDelay="0.00" arrival="117.00" arrivalLane="h12_0" arrivalPos="94.90" arrivalSpeed="14.78" duration="35.00" routeLength="197.71" waitingTime="13.00" waitingCount="1" stopTime="0.00" timeLoss="21.45" rerouteNo="0" devices="tripinfo_flow_2.13 routing_flow_2.13" vType="DEFAULT_VEHTYPE" speedFactor="1.12" vaporized=""/>
    <tripinfo id="flow_2.12" depart="80.00" departLane="E1_0" departPos="5.10" departSpeed="13.23" departDelay="0.00" arrival="121.00" arrivalLane="h12_0" arrivalPos="94.90" arrivalSpeed="12.16" duration="41.00" routeLength="197.71" waitingTime="19.00" waitingCount="1" stopTime="0.00" timeLoss="25.55" rerouteNo="0" devices="tripinfo_flow_2.12 routing_flow_2.12" vType="DEFAULT_VEHTYPE" speedFactor="0.95" vaporized=""/>
    <tripinfo id="flow_1.14" depart="88.00" departLane="v11_0" departPos="5.10" departSpeed="4.62" departDelay="0.00" arrival="129.00" arrivalLane="E0_0" arrivalPos="104.53" arrivalSpeed="15.04" duration="41.00" routeLength="215.56" waitingTime="14.00" waitingCount="1" stopTime="0.00" timeLoss="21.46" rerouteNo="0" devices="tripinfo_flow_1.14 routing_flow_1.14" vType="DEFAULT_VEHTYPE" speedFactor="1.09" vaporized=""/>
    <tripinfo id="flow_1.15" depart="97.00" departLane="v11_0" departPos="5.10" departSpeed="8.98" departDelay="0.00" arrival="131.00" arrivalLane="E0_0" arrivalPos="104.53" arrivalSpeed="13.72" duration="34.00" routeLength="215.56" waitingTime="7.00" waitingCount="1" stopTime="0.00" timeLoss="14.33" rerouteNo="0" devices="tripinfo_flow_1.15 routing_flow_1.15" vType="DEFAULT_VEHTYPE" speedFactor="1.08" vaporized=""/>
    <tripinfo id="flow_1.16" depart="105.00" departLane="v11_0" departPos="5.10" departSpeed="9.99" departDelay="0.00" arrival="132.00" arrivalLane="E0_0" arrivalPos="104.53" arrivalSpeed="15.38" duration="27.00" routeLength="215.56" waitingTime="3.00" waitingCount="1" stopTime="0.00" timeLoss="9.90" rerouteNo="0" devices="tripinfo_flow_1.16 routing_flow_1.16" vType="DEFAULT_VEHTYPE" speedFactor="1.20" vaporized=""/>
    <tripinfo id="flow_1.17" depart="109.00" departLane="v11_0" departPos="5.10" departSpeed="7.93" departDelay="0.00" arrival="135.00" arrivalLane="E0_0" arrivalPos="104.53" arrivalSpeed="12.82" duration="26.00" routeLength="215.56" waitingTime="0.00" waitingCount="0" stopTime="0.00" timeLoss="4.53" rerouteNo="0" devices="tripinfo_flow_1.17 routing_flow_1.17" vType="DEFAULT_VEHTYPE" speedFactor="0.95" vaporized=""/>
    <tripinfo id="flow_1.18" depart="114.00" departLane="v11_0" departPos="5.10" departSpeed="6.95" departDelay="0.00" arrival="141.00" arrivalLane="E0_0" arrivalPos="104.53" arrivalSpeed="11.15" duration="27.00" routeLength="215.56" waitingTime="0.00" waitingCount="0" stopTime="0.00" timeLoss="2.57" rerouteNo="0" devices="tripinfo_flow_1.18 routing_flow_1.18" vType="DEFAULT_VEHTYPE" speedFactor="0.83" vaporized=""/>
    <tripinfo id="flow_2.14" depart="110.00" departLane="E1_1" departPos="5.10" departSpeed="15.72" departDelay="0.00" arrival="143.00" arrivalLane="h12_0" arrivalPos="94.90" arrivalSpeed="14.44" duration="33.00" routeLength="197.71" waitingTime="11.00" waitingCount="1" stopTime="0.00" timeLoss="20.05" rerouteNo="0" devices="tripinfo_flow_2.14 routing_flow_2.14" vType="DEFAULT_VEHTYPE" speedFactor="1.13" vaporized=""/>
    <tripinfo id="flow_2.5" depart="41.00" departLane="E1_0" departPos="5.10" departSpeed="15.11" departDelay="0.00" arrival="146.00" arrivalLane="h12_0" arrivalPos="94.90" arrivalSpeed="14.38" duration="105.00" routeLength="198.14" waitingTime="82.00" waitingCount="2" stopTime="0.00" timeLoss="91.23" rerouteNo="0" devices="tripinfo_flow_2.5 routing_flow_2.5" vType="DEFAULT_VEHTYPE" speedFactor="1.09" vaporized=""/>
    <tripinfo id="flow_2.15" depart="137.00" departLane="E1_1" departPos="5.10" departSpeed="12.42" departDelay="0.00" arrival="154.00" arrivalLane="h12_0" arrivalPos="94.90" arrivalSpeed="11.13" duration="17.00" routeLength="197.71" waitingTime="0.00" waitingCount="0" stopTime="0.00" timeLoss="1.07" rerouteNo="0" devices="tripinfo_flow_2.15 routing_flow_2.15" vType="DEFAULT_VEHTYPE" speedFactor="0.89" vaporized=""/>
    <tripinfo id="flow_1.19" depart="116.00" departLane="v11_0" departPos="5.10" departSpeed="5.38" departDelay="1.00" arrival="159.00" arrivalLane="E0_0" arrivalPos="104.53" arrivalSpeed="11.82" duration="43.00" routeLength="215.56" waitingTime="12.00" waitingCount="1" stopTime="0.00" timeLoss="20.56" rerouteNo="0" devices="tripinfo_flow_1.19 routing_flow_1.19" vType="DEFAULT_VEHTYPE" speedFactor="0.91" vaporized=""/>
    <tripinfo id="flow_1.20" depart="127.00" departLane="v11_0" departPos="5.10" departSpeed="9.55" departDelay="0.00" arrival="161.00" arrivalLane="E0_0" arrivalPos="104.53" arrivalSpeed="15.74" duration="34.00" routeLength="215.56" waitingTime="8.00" waitingCount="1" stopTime="0.00" timeLoss="15.61" rerouteNo="0" devices="tripinfo_flow_1.20 routing_flow_1.20" vType="DEFAULT_VEHTYPE" speedFactor="1.15" vaporized=""/>
    <tripinfo id="flow_1.21" depart="142.00" departLane="v11_0" departPos="5.10" departSpeed="7.07" departDelay="0.00" arrival="169.00" arrivalLane="E0_0" arrivalPos="104.53" arrivalSpeed="11.08" duration="27.00" routeLength="215.56" waitingTime="0.00" waitingCount="0" stopTime="0.00" timeLoss="2.65" rerouteNo="0" devices="tripinfo_flow_1.21 routing_flow_1.21" vType="DEFAULT_VEHTYPE" speedFactor="0.85" vaporized=""/>
    <tripinfo id="flow_1.22" depart="148.00" departLane="v11_0" departPos="5.10" departSpeed="8.29" departDelay="0.00" arrival="171.00" arrivalLane="E0_0" arrivalPos="104.53" arrivalSpeed="12.78" duration="23.00" routeLength="215.56" waitingTime="0.00" waitingCount="0" stopTime="0.00" timeLoss="2.36" rerouteNo="0" devices="tripinfo_flow_1.22 routing_flow_1.22" vType="DEFAULT_VEHTYPE" speedFactor="0.99" vaporized=""/>
    <tripinfo id="flow_1.23" depart="173.00" departLane="v11_0" departPos="5.10" departSpeed="8.33" departDelay="0.00" arrival="195.00" arrivalLane="E0_0" arrivalPos="104.53" arrivalSpeed="13.65" duration="22.00" routeLength="215.56" waitingTime="0.00" waitingCount="0" stopTime="0.00" timeLoss="1.74" rerouteNo="0" devices="tripinfo_flow_1.23 routing_flow_1.23" vType="DEFAULT_VEHTYPE" speedFactor="1.00" vaporized=""/>
    <tripinfo id="flow_1.24" depart="176.00" departLane="v11_0" departPos="5.10" departSpeed="8.55" departDelay="0.00" arrival="198.00" arrivalLane="E0_0" arrivalPos="104.53" arrivalSpeed="13.81" duration="22.00" routeLength="215.56" waitingTime="0.00" waitingCount="0" stopTime="0.00" timeLoss="2.10" rerouteNo="0" devices="tripinfo_flow_1.24 routing_flow_1.24" vType="DEFAULT_VEHTYPE" speedFactor="1.03" vaporized=""/>
    <tripinfo id="flow_1.25" depart="180.00" departLane="v11_0" departPos="5.10" departSpeed="6.87" departDelay="0.00" arrival="208.00" arrivalLane="E0_0" arrivalPos="104.53" arrivalSpeed="10.90" duration="28.00" routeLength="215.56" waitingTime="0.00" waitingCount="0" stopTime="0.00" timeLoss="2.60" rerouteNo="0" devices="tripinfo_flow_1.25 routing_flow_1.25" vType="DEFAULT_VEHTYPE" speedFactor="0.82" vaporized=""/>
    <tripinfo id="flow_1.26" depart="183.00" departLane="v11_0" departPos="5.10" departSpeed="8.71" departDelay="0.00" arrival="209.00" arrivalLane="E0_0" arrivalPos="104.53" arrivalSpeed="13.56" duration="26.00" routeLength="215.56" waitingTime="0.00" waitingCount="0" stopTime="0.00" timeLoss="6.52" rerouteNo="0" devices="tripinfo_flow_1.26 routing_flow_1.26" vType="DEFAULT_VEHTYPE" speedFactor="1.05" vaporized=""/>
    <tripinfo id="flow_1.27" depart="190.00" departLane="v11_0" departPos="5.10" departSpeed="7.64" departDelay="0.00" arrival="215.00" arrivalLane="E0_0" arrivalPos="104.53" arrivalSpeed="11.50" duration="25.00" routeLength="215.56" waitingTime="0.00" waitingCount="0" stopTime="0.00" timeLoss="2.26" rerouteNo="0" devices="tripinfo_flow_1.27 routing_flow_1.27" vType="DEFAULT_VEHTYPE" speedFactor="0.92" vaporized=""/>
    <tripinfo id="flow_2.16" depart="139.00" departLane="E1_1" departPos="5.10" departSpeed="12.96" departDelay="0.00" arrival="218.00" arrivalLane="h12_0" arrivalPos="94.90" arrivalSpeed="12.79" duration="79.00" routeLength="197.71" waitingTime="58.00" waitingCount="1" stopTime="0.00" timeLoss="64.25" rerouteNo="0" devices="tripinfo_flow_2.16 routing_flow_2.16" vType="DEFAULT_VEHTYPE" speedFactor="1.01" vaporized=""/>
    <tripinfo id="flow_2.18" depart="153.00" departLane="E1_1" departPos="5.10" departSpeed="14.74" departDelay="0.00" arrival="220.00" arrivalLane="h12_0" arrivalPos="94.90" arrivalSpeed="13.74" duration="67.00" routeLength="197.71" waitingTime="46.00" waitingCount="1" stopTime="0.00" timeLoss="52.75" rerouteNo="0" devices="tripinfo_flow_2.18 routing_flow_2.18" vType="DEFAULT_VEHTYPE" speedFactor="1.06" vaporized=""/>
    <tripinfo id="flow_2.20" depart="165.00" departLane="E1_1" departPos="5.10" departSpeed="14.37" departDelay="0.00" arrival="221.00" arrivalLane="h12_0" arrivalPos="94.90" arrivalSpeed="13.87" duration="56.00" routeLength="197.71" waitingTime="35.00" waitingCount="1" stopTime="0.00" timeLoss="42.12" rerouteNo="0" devices="tripinfo_flow_2.20 routing_flow_2.20" vType="DEFAULT_VEHTYPE" speedFactor="1.03" vaporized=""/>
    <tripinfo id="flow_2.22" depart="174.00" departLane="E1_1" departPos="5.10" departSpeed="12.73" departDelay="0.00" arrival="224.00" arrivalLane="h12_0" arrivalPos="94.90" arrivalSpeed="12.19" duration="50.00" routeLength="197.71" waitingTime="28.00" waitingCount="1" stopTime="0.00" timeLoss="34.08" rerouteNo="0" devices="tripinfo_flow_2.22 routing_flow_2.22" vType="DEFAULT_VEHTYPE" speedFactor="0.92" vaporized=""/>
    <tripinfo id="flow_2.24" depart="178.00" departLane="E1_1" departPos="5.10" departSpeed="12.47" departDelay="0.00" arrival="227.00" arrivalLane="h12_0" arrivalPos="94.90" arrivalSpeed="11.48" duration="49.00" routeLength="197.71" waitingTime="24.00" waitingCount="1" stopTime="0.00" timeLoss="32.40" rerouteNo="0" devices="tripinfo_flow_2.24 routing_flow_2.24" vType="DEFAULT_VEHTYPE" speedFactor="0.90" vaporized=""/>
    <tripinfo id="flow_2.26" depart="197.00" departLane="E1_1" departPos="5.10" departSpeed="15.69" departDelay="0.00" arrival="228.00" arrivalLane="h12_0" arrivalPos="94.90" arrivalSpeed="12.90" duration="31.00" routeLength="197.71" waitingTime="7.00" waitingCount="1" stopTime="0.00" timeLoss="18.32" rerouteNo="0" devices="tripinfo_flow_2.26 routing_flow_2.26" vType="DEFAULT_VEHTYPE" speedFactor="1.13" vaporized=""/>
    <tripinfo id="flow_1.28" depart="211.00" departLane="v11_0" departPos="5.10" departSpeed="6.57" departDelay="0.00" arrival="240.00" arrivalLane="E0_0" arrivalPos="104.53" arrivalSpeed="10.55" duration="29.00" routeLength="215.56" waitingTime="0.00" waitingCount="0" stopTime="0.00" timeLoss="3.24" rerouteNo="0" devices="tripinfo_flow_1.28 routing_flow_1.28" vType="DEFAULT_VEHTYPE" speedFactor="0.79" vaporized=""/>
    <tripinfo id="flow_1.29" depart="213.00" departLane="v11_0" departPos="5.10" departSpeed="4.60" departDelay="1.00" arrival="242.00" arrivalLane="E0_0" arrivalPos="104.53" arrivalSpeed="11.81" duration="29.00" routeLength="215.56" waitingTime="0.00" waitingCount="0" stopTime="0.00" timeLoss="6.81" rerouteNo="0" devices="tripinfo_flow_1.29 routing_flow_1.29" vType="DEFAULT_VEHTYPE" speedFactor="0.93" vaporized=""/>
    <tripinfo id="flow_1.30" depart="218.00" departLane="v11_0" departPos="5.10" departSpeed="7.96" departDelay="0.00" arrival="244.00" arrivalLane="E0_0" arrivalPos="104.53" arrivalSpeed="12.80" duration="26.00" routeLength="215.56" waitingTime="0.00" waitingCount="0" stopTime="0.00" timeLoss="3.99" rerouteNo="0" devices="tripinfo_flow_1.30 routing_flow_1.30" vType="DEFAULT_VEHTYPE" speedFactor="0.96" vaporized=""/>
    <tripinfo id="flow_1.31" depart="240.00" departLane="v11_0" departPos="5.10" departSpeed="9.54" departDelay="0.00" arrival="260.00" arrivalLane="E0_0" arrivalPos="104.53" arrivalSpeed="14.68" duration="20.00" routeLength="215.56" waitingTime="0.00" waitingCount="0" stopTime="0.00" timeLoss="1.90" rerouteNo="0" devices="tripinfo_flow_1.31 routing_flow_1.31" vType="DEFAULT_VEHTYPE" speedFactor="1.15" vaporized=""/>
    <tripinfo id="flow_1.32" depart="241.00" departLane="v11_0" departPos="5.10" departSpeed="5.04" departDelay="0.00" arrival="274.00" arrivalLane="E0_0" arrivalPos="104.53" arrivalSpeed="8.56" duration="33.00" routeLength="215.56" waitingTime="0.00" waitingCount="0" stopTime="0.00" timeLoss="3.73" rerouteNo="0" devices="tripinfo_flow_1.32 routing_flow_1.32" vType="DEFAULT_VEHTYPE" speedFactor="0.69" vaporized=""/>
    <tripinfo id="flow_2.19" depart="160.00" departLane="E1_0" departPos="5.10" departSpeed="15.18" departDelay="0.00" arrival="278.00" arrivalLane="h12_0" arrivalPos="94.90" arrivalSpeed="14.15" duration="118.00" routeLength="197.71" waitingTime="91.00" waitingCount="3" stopTime="0.00" timeLoss="104.20" rerouteNo="0" devices="tripinfo_flow_2.19 routing_flow_2.19" vType="DEFAULT_VEHTYPE" speedFactor="1.09" vaporized=""/>
    <tripinfo id="flow_2.25" depart="186.00" departLane="E1_0" departPos="5.10" departSpeed="14.05" departDelay="0.00" arrival="280.00" arrivalLane="h12_0" arrivalPos="94.90" arrivalSpeed="13.67" duration="94.00" routeLength="197.71" waitingTime="63.00" waitingCount="3" stopTime="0.00" timeLoss="79.26" rerouteNo="0" devices="tripinfo_flow_2.25 routing_flow_2.25" vType="DEFAULT_VEHTYPE" speedFactor="1.01" vaporized=""/>
    <tripinfo id="flow_2.27" depart="225.00" departLane="E1_1" departPos="5.10" departSpeed="12.09" departDelay="0.00" arrival="283.00" arrivalLane="h12_0" arrivalPos="94.90" arrivalSpeed="11.04" duration="58.00" routeLength="197.71" waitingTime="36.00" waitingCount="1" stopTime="0.00" timeLoss="41.17" rerouteNo="0" devices="tripinfo_flow_2.27 routing_flow_2.27" vType="DEFAULT_VEHTYPE" speedFactor="0.87" vaporized=""/>
    <tripinfo id="flow_2.29" depart="236.00" departLane="E1_1" departPos="5.10" departSpeed="14.75" departDelay="0.00" arrival="285.00" arrivalLane="h12_0" arrivalPos="94.90" arrivalSpeed="14.30" duration="49.00" routeLength="197.71" waitingTime="25.00" waitingCount="1" stopTime="0.00" timeLoss="34.73" rerouteNo="0" devices="tripinfo_flow_2.29 routing_flow_2.29" vType="DEFAULT_VEHTYPE" speedFactor="1.06" vaporized=""/>
    <tripinfo id="flow_2.31" depart="250.00" departLane="E1_1" departPos="5.10" departSpeed="14.67" departDelay="0.00" arrival="286.00" arrivalLane="h12_0" arrivalPos="94.90" arrivalSpeed="14.65" duration="36.00" routeLength="197.71" waitingTime="12.00" waitingCount="1" stopTime="0.00" timeLoss="22.32" rerouteNo="0" devices="tripinfo_flow_2.31 routing_flow_2.31" vType="DEFAULT_VEHTYPE" speedFactor="1.06" vaporized=""/>
    <tripinfo id="flow_2.30" depart="244.00" departLane="E1_0" departPos="5.10" departSpeed="14.42" departDelay="0.00" arrival="288.00" arrivalLane="h12_0" arrivalPos="94.90" arrivalSpeed="14.15" duration="44.00" routeLength="197.71" waitingTime="23.00" waitingCount="1" stopTime="0.00" timeLoss="29.95" rerouteNo="0" devices="tripinfo_flow_2.30 routing_flow_2.30" vType="DEFAULT_VEHTYPE" speedFactor="1.04" vaporized=""/>
    <tripinfo id="flow_1.33" depart="258.00" departLane="v11_0" departPos="5.10" departSpeed="7.72" departDelay="0.00" arrival="294.00" arrivalLane="E0_0" arrivalPos="104.53" arrivalSpeed="11.76" duration="36.00" routeLength="215.56" waitingTime="9.00" waitingCount="1" stopTime="0.00" timeLoss="13.95" rerouteNo="0" devices="tripinfo_flow_1.33 routing_flow_1.33" vType="DEFAULT_VEHTYPE" speedFactor="0.93" vaporized=""/>
    <tripinfo id="flow_1.34" depart="261.00" departLane="v11_0" departPos="5.10" departSpeed="7.74" departDelay="0.00" arrival="296.00" arrivalLane="E0_0" arrivalPos="104.53" arrivalSpeed="12.14" duration="35.00" routeLength="215.56" waitingTime="7.00" waitingCount="1" stopTime="0.00" timeLoss="12.96" rerouteNo="0" devices="tripinfo_flow_1.34 routing_flow_1.34" vType="DEFAULT_VEHTYPE" speedFactor="0.93" vaporized=""/>
    <tripinfo id="flow_1.35" depart="265.00" departLane="v11_0" departPos="5.10" departSpeed="9.08" departDelay="0.00" arrival="298.00" arrivalLane="E0_0" arrivalPos="104.53" arrivalSpeed="14.84" duration="33.00" routeLength="215.56" waitingTime="4.00" waitingCount="1" stopTime="0.00" timeLoss="13.81" rerouteNo="0" devices="tripinfo_flow_1.35 routing_flow_1.35" vType="DEFAULT_VEHTYPE" speedFactor="1.09" vaporized=""/>
    <tripinfo id="flow_1.36" depart="267.00" departLane="v11_0" departPos="5.10" departSpeed="8.83" departDelay="0.00" arrival="300.00" arrivalLane="E0_0" arrivalPos="104.53" arrivalSpeed="14.53" duration="33.00" routeLength="215.56" waitingTime="3.00" waitingCount="1" stopTime="0.00" timeLoss="13.20" rerouteNo="0" devices="tripinfo_flow_1.36 routing_flow_1.36" vType="DEFAULT_VEHTYPE" speedFactor="1.06" vaporized=""/>
    <tripinfo id="flow_1.37" depart="278.00" departLane="v11_0" departPos="5.10" departSpeed="8.91" departDelay="0.00" arrival="302.00" arrivalLane="E0_0" arrivalPos="104.53" arrivalSpeed="14.41" duration="24.00" routeLength="215.56" waitingTime="0.00" waitingCount="0" stopTime="0.00" timeLoss="4.27" rerouteNo="0" devices="tripinfo_flow_1.37 routing_flow_1.37" vType="DEFAULT_VEHTYPE" speedFactor="1.07" vaporized=""/>
    <tripinfo id="flow_1.38" depart="284.00" departLane="v11_0" departPos="5.10" departSpeed="9.42" departDelay="0.00" arrival="304.00" arrivalLane="E0_0" arrivalPos="104.53" arrivalSpeed="15.52" duration="20.00" routeLength="215.56" waitingTime="0.00" waitingCount="0" stopTime="0.00" timeLoss="1.86" rerouteNo="0" devices="tripinfo_flow_1.38 routing_flow_1.38" vType="DEFAULT_VEHTYPE" speedFactor="1.13" vaporized=""/>
    <tripinfo id="flow_1.39" depart="290.00" departLane="v11_0" departPos="5.10" departSpeed="8.93" departDelay="0.00" arrival="311.00" arrivalLane="E0_0" arrivalPos="104.53" arrivalSpeed="13.97" duration="21.00" routeLength="215.56" waitingTime="0.00" waitingCount="0" stopTime="0.00" timeLoss="1.88" rerouteNo="0" devices="tripinfo_flow_1.39 routing_flow_1.39" vType="DEFAULT_VEHTYPE" speedFactor="1.07" vaporized=""/>