<?xml version="1.0" encoding="UTF-8"?>

<!-- generated on 2025-04-23 16:38:31 by Eclipse SUMO sumo Version 1.22.0
<sumoConfiguration xmlns:xsi="http://www.w3.org/2001/XMLSchema-instance" xsi:noNamespaceSchemaLocation="http://sumo.dlr.de/xsd/sumoConfiguration.xsd">

    <input>
        <net-file value="nets/cliente0.net.xml"/>
        <route-files value="nets/cliente0.rou.xml"/>
    </input>

    <output>
        <tripinfo-output value="output/tripinfo_cliente0.xml"/>
    </output>

    <processing>
        <time-to-teleport value="-1"/>
        <waiting-time-memory value="1000"/>
        <max-depart-delay value="-1"/>
    </processing>

    <traci_server>
        <remote-port value="61267"/>
    </traci_server>

    <random_number>
        <random value="true"/>
    </random_number>

</sumoConfiguration>
-->

<tripinfos xmlns:xsi="http://www.w3.org/2001/XMLSchema-instance" xsi:noNamespaceSchemaLocation="http://sumo.dlr.de/xsd/tripinfo_file.xsd">
    <tripinfo id="flow_1.0" depart="0.00" departLane="h11_0" departPos="5.10" departSpeed="7.79" departDelay="0.00" arrival="24.00" arrivalLane="E1_0" arrivalPos="91.61" arrivalSpeed="12.73" duration="24.00" routeLength="205.70" waitingTime="0.00" waitingCount="0" stopTime="0.00" timeLoss="2.15" rerouteNo="0" devices="tripinfo_flow_1.0 routing_flow_1.0" vType="DEFAULT_VEHTYPE" speedFactor="0.94" vaporized=""/>
    <tripinfo id="flow_1.1" depart="2.00" departLane="h11_0" departPos="5.10" departSpeed="6.96" departDelay="0.00" arrival="25.00" arrivalLane="E1_0" arrivalPos="91.61" arrivalSpeed="13.41" duration="23.00" routeLength="205.70" waitingTime="0.00" waitingCount="0" stopTime="0.00" timeLoss="4.39" rerouteNo="0" devices="tripinfo_flow_1.1 routing_flow_1.1" vType="DEFAULT_VEHTYPE" speedFactor="1.06" vaporized=""/>
    <tripinfo id="flow_1.2" depart="8.00" departLane="h11_0" departPos="5.10" departSpeed="7.85" departDelay="0.00" arrival="32.00" arrivalLane="E1_0" arrivalPos="91.61" arrivalSpeed="12.39" duration="24.00" routeLength="205.70" waitingTime="0.00" waitingCount="0" stopTime="0.00" timeLoss="2.30" rerouteNo="0" devices="tripinfo_flow_1.2 routing_flow_1.2" vType="DEFAULT_VEHTYPE" speedFactor="0.94" vaporized=""/>
    <tripinfo id="flow_2.1" depart="18.00" departLane="E4_1" departPos="5.10" departSpeed="12.53" departDelay="0.00" arrival="43.00" arrivalLane="v22_0" arrivalPos="96.24" arrivalSpeed="6.47" duration="25.00" routeLength="212.60" waitingTime="0.00" waitingCount="0" stopTime="0.00" timeLoss="2.19" rerouteNo="0" devices="tripinfo_flow_2.1 routing_flow_2.1" vType="DEFAULT_VEHTYPE" speedFactor="0.90" vaporized=""/>
    <tripinfo id="flow_2.2" depart="19.00" departLane="E4_0" departPos="5.10" departSpeed="12.68" departDelay="0.00" arrival="46.00" arrivalLane="v22_0" arrivalPos="96.24" arrivalSpeed="7.49" duration="27.00" routeLength="212.60" waitingTime="0.00" waitingCount="0" stopTime="0.00" timeLoss="3.67" rerouteNo="0" devices="tripinfo_flow_2.2 routing_flow_2.2" vType="DEFAULT_VEHTYPE" speedFactor="0.91" vaporized=""/>
    <tripinfo id="flow_1.3" depart="20.00" departLane="h11_0" departPos="5.10" departSpeed="8.50" departDelay="0.00" arrival="52.00" arrivalLane="E1_0" arrivalPos="91.61" arrivalSpeed="13.46" duration="32.00" routeLength="205.70" waitingTime="7.00" waitingCount="1" stopTime="0.00" timeLoss="12.71" rerouteNo="0" devices="tripinfo_flow_1.3 routing_flow_1.3" vType="DEFAULT_VEHTYPE" speedFactor="1.02" vaporized=""/>
    <tripinfo id="flow_1.4" depart="25.00" departLane="h11_0" departPos="5.10" departSpeed="9.00" departDelay="0.00" arrival="54.00" arrivalLane="E1_0" arrivalPos="91.61" arrivalSpeed="13.77" duration="29.00" routeLength="205.70" waitingTime="4.00" waitingCount="1" stopTime="0.00" timeLoss="10.64" rerouteNo="0" devices="tripinfo_flow_1.4 routing_flow_1.4" vType="DEFAULT_VEHTYPE" speedFactor="1.08" vaporized=""/>
    <tripinfo id="flow_2.3" depart="27.00" departLane="E4_1" departPos="5.10" departSpeed="11.29" departDelay="0.00" arrival="55.00" arrivalLane="v22_0" arrivalPos="96.24" arrivalSpeed="5.48" duration="28.00" routeLength="212.60" waitingTime="0.00" waitingCount="0" stopTime="0.00" timeLoss="2.65" rerouteNo="0" devices="tripinfo_flow_2.3 routing_flow_2.3" vType="DEFAULT_VEHTYPE" speedFactor="0.81" vaporized=""/>
    <tripinfo id="flow_1.5" depart="26.00" departLane="h11_0" departPos="5.10" departSpeed="3.55" departDelay="0.00" arrival="56.00" arrivalLane="E1_0" arrivalPos="91.61" arrivalSpeed="13.17" duration="30.00" routeLength="205.70" waitingTime="3.00" waitingCount="1" stopTime="0.00" timeLoss="10.60" rerouteNo="0" devices="tripinfo_flow_1.5 routing_flow_1.5" vType="DEFAULT_VEHTYPE" speedFactor="1.02" vaporized=""/>
    <tripinfo id="flow_2.4" depart="28.00" departLane="E4_1" departPos="5.10" departSpeed="8.10" departDelay="0.00" arrival="57.00" arrivalLane="v22_0" arrivalPos="96.24" arrivalSpeed="9.08" duration="29.00" routeLength="212.60" waitingTime="0.00" waitingCount="0" stopTime="0.00" timeLoss="11.22" rerouteNo="0" devices="tripinfo_flow_2.4 routing_flow_2.4" vType="DEFAULT_VEHTYPE" speedFactor="1.18" vaporized=""/>
    <tripinfo id="flow_1.6" depart="37.00" departLane="h11_0" departPos="5.10" departSpeed="8.49" departDelay="0.00" arrival="59.00" arrivalLane="E1_0" arrivalPos="91.61" arrivalSpeed="14.05" duration="22.00" routeLength="205.70" waitingTime="0.00" waitingCount="0" stopTime="0.00" timeLoss="2.27" rerouteNo="0" devices="tripinfo_flow_1.6 routing_flow_1.6" vType="DEFAULT_VEHTYPE" speedFactor="1.02" vaporized=""/>
    <tripinfo id="flow_1.7" depart="42.00" departLane="h11_0" departPos="5.10" departSpeed="8.23" departDelay="0.00" arrival="65.00" arrivalLane="E1_0" arrivalPos="91.61" arrivalSpeed="12.48" duration="23.00" routeLength="205.70" waitingTime="0.00" waitingCount="0" stopTime="0.00" timeLoss="2.40" rerouteNo="0" devices="tripinfo_flow_1.7 routing_flow_1.7" vType="DEFAULT_VEHTYPE" speedFactor="0.99" vaporized=""/>
    <tripinfo id="flow_1.8" depart="43.00" departLane="h11_0" departPos="5.10" departSpeed="3.71" departDelay="0.00" arrival="66.00" arrivalLane="E1_0" arrivalPos="91.61" arrivalSpeed="14.12" duration="23.00" routeLength="205.70" waitingTime="0.00" waitingCount="0" stopTime="0.00" timeLoss="5.27" rerouteNo="0" devices="tripinfo_flow_1.8 routing_flow_1.8" vType="DEFAULT_VEHTYPE" speedFactor="1.11" vaporized=""/>
    <tripinfo id="flow_2.5" depart="41.00" departLane="E4_1" departPos="5.10" departSpeed="15.11" departDelay="0.00" arrival="77.00" arrivalLane="v22_0" arrivalPos="96.24" arrivalSpeed="8.10" duration="36.00" routeLength="212.60" waitingTime="11.00" waitingCount="1" stopTime="0.00" timeLoss="16.68" rerouteNo="0" devices="tripinfo_flow_2.5 routing_flow_2.5" vType="DEFAULT_VEHTYPE" speedFactor="1.09" vaporized=""/>
    <tripinfo id="flow_2.6" depart="57.00" departLane="E4_0" departPos="5.10" departSpeed="12.74" departDelay="0.00" arrival="83.00" arrivalLane="v22_0" arrivalPos="96.24" arrivalSpeed="6.49" duration="26.00" routeLength="212.60" waitingTime="0.00" waitingCount="0" stopTime="0.00" timeLoss="3.13" rerouteNo="0" devices="tripinfo_flow_2.6 routing_flow_2.6" vType="DEFAULT_VEHTYPE" speedFactor="0.92" vaporized=""/>
    <tripinfo id="flow_2.7" depart="63.00" departLane="E4_1" departPos="5.10" departSpeed="14.29" departDelay="0.00" arrival="85.00" arrivalLane="v22_0" arrivalPos="96.24" arrivalSpeed="8.33" duration="22.00" routeLength="212.60" waitingTime="0.00" waitingCount="0" stopTime="0.00" timeLoss="1.67" rerouteNo="0" devices="tripinfo_flow_2.7 routing_flow_2.7" vType="DEFAULT_VEHTYPE" speedFactor="1.03" vaporized=""/>
    <tripinfo id="flow_2.8" depart="68.00" departLane="E4_1" departPos="5.10" departSpeed="16.21" departDelay="0.00" arrival="87.00" arrivalLane="v22_0" arrivalPos="96.24" arrivalSpeed="9.21" duration="19.00" routeLength="212.60" waitingTime="0.00" waitingCount="0" stopTime="0.00" timeLoss="1.12" rerouteNo="0" devices="tripinfo_flow_2.8 routing_flow_2.8" vType="DEFAULT_VEHTYPE" speedFactor="1.17" vaporized=""/>
    <tripinfo id="flow_1.9" depart="54.00" departLane="h11_0" departPos="5.10" departSpeed="8.86" departDelay="0.00" arrival="88.00" arrivalLane="E1_0" arrivalPos="91.61" arrivalSpeed="13.73" duration="34.00" routeLength="205.70" waitingTime="8.00" waitingCount="1" stopTime="0.00" timeLoss="15.12" rerouteNo="0" devices="tripinfo_flow_1.9 routing_flow_1.9" vType="DEFAULT_VEHTYPE" speedFactor="1.06" vaporized=""/>
    <tripinfo id="flow_1.10" depart="66.00" departLane="h11_0" departPos="5.10" departSpeed="7.10" departDelay="0.00" arrival="92.00" arrivalLane="E1_0" arrivalPos="91.61" arrivalSpeed="11.68" duration="26.00" routeLength="205.70" waitingTime="0.00" waitingCount="0" stopTime="0.00" timeLoss="2.94" rerouteNo="0" devices="tripinfo_flow_1.10 routing_flow_1.10" vType="DEFAULT_VEHTYPE" speedFactor="0.85" vaporized=""/>
    <tripinfo id="flow_1.11" depart="69.00" departLane="h11_0" departPos="5.10" departSpeed="8.54" departDelay="0.00" arrival="94.00" arrivalLane="E1_0" arrivalPos="91.61" arrivalSpeed="13.67" duration="25.00" routeLength="205.70" waitingTime="0.00" waitingCount="0" stopTime="0.00" timeLoss="6.16" rerouteNo="0" devices="tripinfo_flow_1.11 routing_flow_1.11" vType="DEFAULT_VEHTYPE" speedFactor="1.06" vaporized=""/>
    <tripinfo id="flow_1.12" depart="78.00" departLane="h11_0" departPos="5.10" departSpeed="9.41" departDelay="0.00" arrival="98.00" arrivalLane="E1_0" arrivalPos="91.61" arrivalSpeed="14.43" duration="20.00" routeLength="205.70" waitingTime="0.00" waitingCount="0" stopTime="0.00" timeLoss="2.09" rerouteNo="0" devices="tripinfo_flow_1.12 routing_flow_1.12" vType="DEFAULT_VEHTYPE" speedFactor="1.13" vaporized=""/>
    <tripinfo id="flow_1.13" depart="87.00" departLane="h11_0" departPos="5.10" departSpeed="9.01" departDelay="0.00" arrival="107.00" arrivalLane="E1_0" arrivalPos="91.61" arrivalSpeed="14.56" duration="20.00" routeLength="205.70" waitingTime="0.00" waitingCount="0" stopTime="0.00" timeLoss="1.59" rerouteNo="0" devices="tripinfo_flow_1.13 routing_flow_1.13" vType="DEFAULT_VEHTYPE" speedFactor="1.08" vaporized=""/>
    <tripinfo id="flow_1.14" depart="88.00" departLane="h11_0" departPos="5.10" departSpeed="4.68" departDelay="0.00" arrival="110.00" arrivalLane="E1_0" arrivalPos="91.61" arrivalSpeed="14.16" duration="22.00" routeLength="205.70" waitingTime="0.00" waitingCount="0" stopTime="0.00" timeLoss="3.18" rerouteNo="0" devices="tripinfo_flow_1.14 routing_flow_1.14" vType="DEFAULT_VEHTYPE" speedFactor="1.09" vaporized=""/>
    <tripinfo id="flow_1.15" depart="97.00" departLane="h11_0" departPos="5.10" departSpeed="8.98" departDelay="0.00" arrival="118.00" arrivalLane="E1_0" arrivalPos="91.61" arrivalSpeed="14.57" duration="21.00" routeLength="205.70" waitingTime="0.00" waitingCount="0" stopTime="0.00" timeLoss="1.93" rerouteNo="0" devices="tripinfo_flow_1.15 routing_flow_1.15" vType="DEFAULT_VEHTYPE" speedFactor="1.08" vaporized=""/>
    <tripinfo id="flow_2.9" depart="72.00" departLane="E4_1" departPos="5.10" departSpeed="14.47" departDelay="0.00" arrival="128.00" arrivalLane="v22_0" arrivalPos="96.24" arrivalSpeed="8.16" duration="56.00" routeLength="212.60" waitingTime="29.00" waitingCount="1" stopTime="0.00" timeLoss="35.78" rerouteNo="0" devices="tripinfo_flow_2.9 routing_flow_2.9" vType="DEFAULT_VEHTYPE" speedFactor="1.04" vaporized=""/>
    <tripinfo id="flow_2.10" depart="73.00" departLane="E4_1" departPos="5.10" departSpeed="11.38" departDelay="0.00" arrival="130.00" arrivalLane="v22_0" arrivalPos="96.24" arrivalSpeed="7.24" duration="57.00" routeLength="212.60" waitingTime="28.00" waitingCount="1" stopTime="0.00" timeLoss="36.42" rerouteNo="0" devices="tripinfo_flow_2.10 routing_flow_2.10" vType="DEFAULT_VEHTYPE" speedFactor="0.99" vaporized=""/>
    <tripinfo id="flow_2.11" depart="74.00" departLane="E4_1" departPos="5.10" departSpeed="6.87" departDelay="0.00" arrival="132.00" arrivalLane="v22_0" arrivalPos="96.24" arrivalSpeed="9.09" duration="58.00" routeLength="212.60" waitingTime="27.00" waitingCount="1" stopTime="0.00" timeLoss="39.57" rerouteNo="0" devices="tripinfo_flow_2.11 routing_flow_2.11" vType="DEFAULT_VEHTYPE" speedFactor="1.11" vaporized=""/>
    <tripinfo id="flow_2.14" depart="110.00" departLane="E4_0" departPos="5.10" departSpeed="15.72" departDelay="0.00" arrival="134.00" arrivalLane="v22_0" arrivalPos="96.24" arrivalSpeed="8.55" duration="24.00" routeLength="212.60" waitingTime="0.00" waitingCount="0" stopTime="0.00" timeLoss="5.90" rerouteNo="0" devices="tripinfo_flow_2.14 routing_flow_2.14" vType="DEFAULT_VEHTYPE" speedFactor="1.13" vaporized=""/>
    <tripinfo id="flow_2.13" depart="82.00" departLane="E4_1" departPos="5.10" departSpeed="15.49" departDelay="0.00" arrival="136.00" arrivalLane="v22_0" arrivalPos="96.24" arrivalSpeed="8.87" duration="54.00" routeLength="212.60" waitingTime="23.00" waitingCount="1" stopTime="0.00" timeLoss="35.60" rerouteNo="0" devices="tripinfo_flow_2.13 routing_flow_2.13" vType="DEFAULT_VEHTYPE" speedFactor="1.12" vaporized=""/>
    <tripinfo id="flow_1.16" depart="105.00" departLane="h11_0" departPos="5.10" departSpeed="9.99" departDelay="0.00" arrival="142.00" arrivalLane="E1_0" arrivalPos="91.61" arrivalSpeed="16.14" duration="37.00" routeLength="205.70" waitingTime="14.00" waitingCount="1" stopTime="0.00" timeLoss="20.16" rerouteNo="0" devices="tripinfo_flow_1.16 routing_flow_1.16" vType="DEFAULT_VEHTYPE" speedFactor="1.20" vaporized=""/>
    <tripinfo id="flow_2.0" depart="7.00" departLane="E4_0" departPos="5.10" departSpeed="11.61" departDelay="0.00" arrival="144.00" arrivalLane="v22_0" arrivalPos="96.24" arrivalSpeed="6.85" duration="137.00" routeLength="213.34" waitingTime="104.00" waitingCount="2" stopTime="0.00" timeLoss="111.70" rerouteNo="0" devices="tripinfo_flow_2.0 routing_flow_2.0" vType="DEFAULT_VEHTYPE" speedFactor="0.84" vaporized=""/>
    <tripinfo id="flow_1.17" depart="109.00" departLane="h11_0" departPos="5.10" departSpeed="7.93" departDelay="0.00" arrival="145.00" arrivalLane="E1_0" arrivalPos="91.61" arrivalSpeed="12.05" duration="36.00" routeLength="205.70" waitingTime="9.00" waitingCount="1" stopTime="0.00" timeLoss="14.93" rerouteNo="0" devices="tripinfo_flow_1.17 routing_flow_1.17" vType="DEFAULT_VEHTYPE" speedFactor="0.95" vaporized=""/>
    <tripinfo id="flow_2.12" depart="80.00" departLane="E4_0" departPos="5.10" departSpeed="13.23" departDelay="0.00" arrival="146.00" arrivalLane="v22_0" arrivalPos="96.24" arrivalSpeed="6.99" duration="66.00" routeLength="212.60" waitingTime="33.00" waitingCount="1" stopTime="0.00" timeLoss="44.09" rerouteNo="0" devices="tripinfo_flow_2.12 routing_flow_2.12" vType="DEFAULT_VEHTYPE" speedFactor="0.95" vaporized=""/>
    <tripinfo id="flow_1.18" depart="114.00" departLane="h11_0" departPos="5.10" departSpeed="6.95" departDelay="0.00" arrival="148.00" arrivalLane="E1_0" arrivalPos="91.61" arrivalSpeed="10.92" duration="34.00" routeLength="205.70" waitingTime="4.00" waitingCount="1" stopTime="0.00" timeLoss="9.85" rerouteNo="0" devices="tripinfo_flow_1.18 routing_flow_1.18" vType="DEFAULT_VEHTYPE" speedFactor="0.83" vaporized=""/>
    <tripinfo id="flow_1.19" depart="116.00" departLane="h11_0" departPos="5.10" departSpeed="5.61" departDelay="1.00" arrival="150.00" arrivalLane="E1_0" arrivalPos="91.61" arrivalSpeed="12.67" duration="34.00" routeLength="205.70" waitingTime="3.00" waitingCount="1" stopTime="0.00" timeLoss="11.78" rerouteNo="0" devices="tripinfo_flow_1.19 routing_flow_1.19" vType="DEFAULT_VEHTYPE" speedFactor="0.91" vaporized=""/>
    <tripinfo id="flow_1.20" depart="127.00" departLane="h11_0" departPos="5.10" departSpeed="9.55" departDelay="0.00" arrival="151.00" arrivalLane="E1_0" arrivalPos="91.61" arrivalSpeed="14.53" duration="24.00" routeLength="205.70" waitingTime="0.00" waitingCount="0" stopTime="0.00" timeLoss="6.83" rerouteNo="0" devices="tripinfo_flow_1.20 routing_flow_1.20" vType="DEFAULT_VEHTYPE" speedFactor="1.15" vaporized=""/>
    <tripinfo id="flow_1.21" depart="142.00" departLane="h11_0" departPos="5.10" departSpeed="7.07" departDelay="0.00" arrival="168.00" arrivalLane="E1_0" arrivalPos="91.61" arrivalSpeed="10.82" duration="26.00" routeLength="205.70" waitingTime="0.00" waitingCount="0" stopTime="0.00" timeLoss="2.34" rerouteNo="0" devices="tripinfo_flow_1.21 routing_flow_1.21" vType="DEFAULT_VEHTYPE" speedFactor="0.85" vaporized=""/>
    <tripinfo id="flow_1.22" depart="148.00" departLane="h11_0" departPos="5.10" departSpeed="8.29" departDelay="0.00" arrival="171.00" arrivalLane="E1_0" arrivalPos="91.61" arrivalSpeed="13.48" duration="23.00" routeLength="205.70" waitingTime="0.00" waitingCount="0" stopTime="0.00" timeLoss="2.34" rerouteNo="0" devices="tripinfo_flow_1.22 routing_flow_1.22" vType="DEFAULT_VEHTYPE" speedFactor="0.99" vaporized=""/>
    <tripinfo id="flow_2.16" depart="139.00" departLane="E4_1" departPos="5.10" departSpeed="14.04" departDelay="0.00" arrival="193.00" arrivalLane="v22_0" arrivalPos="96.24" arrivalSpeed="7.17" duration="54.00" routeLength="212.60" waitingTime="26.00" waitingCount="1" stopTime="0.00" timeLoss="33.13" rerouteNo="0" devices="tripinfo_flow_2.16 routing_flow_2.16" vType="DEFAULT_VEHTYPE" speedFactor="1.01" vaporized=""/>
    <tripinfo id="flow_2.18" depart="153.00" departLane="E4_1" departPos="5.10" departSpeed="14.74" departDelay="0.00" arrival="195.00" arrivalLane="v22_0" arrivalPos="96.24" arrivalSpeed="8.04" duration="42.00" routeLength="212.60" waitingTime="14.00" waitingCount="1" stopTime="0.00" timeLoss="22.05" rerouteNo="0" devices="tripinfo_flow_2.18 routing_flow_2.18" vType="DEFAULT_VEHTYPE" speedFactor="1.06" vaporized=""/>
    <tripinfo id="flow_2.20" depart="165.00" departLane="E4_1" departPos="5.10" departSpeed="14.37" departDelay="0.00" arrival="197.00" arrivalLane="v22_0" arrivalPos="96.24" arrivalSpeed="7.40" duration="32.00" routeLength="212.60" waitingTime="5.00" waitingCount="1" stopTime="0.00" timeLoss="11.87" rerouteNo="0" devices="tripinfo_flow_2.20 routing_flow_2.20" vType="DEFAULT_VEHTYPE" speedFactor="1.03" vaporized=""/>
    <tripinfo id="flow_2.22" depart="174.00" departLane="E4_1" departPos="5.10" departSpeed="12.73" departDelay="0.00" arrival="201.00" arrivalLane="v22_0" arrivalPos="96.24" arrivalSpeed="7.26" duration="27.00" routeLength="212.60" waitingTime="0.00" waitingCount="0" stopTime="0.00" timeLoss="4.11" rerouteNo="0" devices="tripinfo_flow_2.22 routing_flow_2.22" vType="DEFAULT_VEHTYPE" speedFactor="0.92" vaporized=""/>
    <tripinfo id="flow_1.23" depart="173.00" departLane="h11_0" departPos="5.10" departSpeed="8.33" departDelay="0.00" arrival="203.00" arrivalLane="E1_0" arrivalPos="91.61" arrivalSpeed="12.86" duration="30.00" routeLength="205.70" waitingTime="3.00" waitingCount="1" stopTime="0.00" timeLoss="9.52" rerouteNo="0" devices="tripinfo_flow_1.23 routing_flow_1.23" vType="DEFAULT_VEHTYPE" speedFactor="1.00" vaporized=""/>
    <tripinfo id="flow_2.24" depart="178.00" departLane="E4_1" departPos="5.10" departSpeed="12.47" departDelay="0.00" arrival="204.00" arrivalLane="v22_0" arrivalPos="96.24" arrivalSpeed="7.31" duration="26.00" routeLength="212.60" waitingTime="0.00" waitingCount="0" stopTime="0.00" timeLoss="2.19" rerouteNo="0" devices="tripinfo_flow_2.24 routing_flow_2.24" vType="DEFAULT_VEHTYPE" speedFactor="0.90" vaporized=""/>
    <tripinfo id="flow_1.24" depart="176.00" departLane="h11_0" departPos="5.10" departSpeed="8.55" departDelay="0.00" arrival="205.00" arrivalLane="E1_0" arrivalPos="91.61" arrivalSpeed="13.88" duration="29.00" routeLength="205.70" waitingTime="3.00" waitingCount="1" stopTime="0.00" timeLoss="8.92" rerouteNo="0" devices="tripinfo_flow_1.24 routing_flow_1.24" vType="DEFAULT_VEHTYPE" speedFactor="1.03" vaporized=""/>
    <tripinfo id="flow_2.19" depart="160.00" departLane="E4_0" departPos="5.10" departSpeed="15.18" departDelay="0.00" arrival="206.00" arrivalLane="v22_0" arrivalPos="96.24" arrivalSpeed="8.65" duration="46.00" routeLength="212.60" waitingTime="15.00" waitingCount="2" stopTime="0.00" timeLoss="26.64" rerouteNo="0" devices="tripinfo_flow_2.19 routing_flow_2.19" vType="DEFAULT_VEHTYPE" speedFactor="1.09" vaporized=""/>
    <tripinfo id="flow_1.25" depart="180.00" departLane="h11_0" departPos="5.10" departSpeed="6.87" departDelay="0.00" arrival="208.00" arrivalLane="E1_0" arrivalPos="91.61" arrivalSpeed="10.51" duration="28.00" routeLength="205.70" waitingTime="0.00" waitingCount="0" stopTime="0.00" timeLoss="4.13" rerouteNo="0" devices="tripinfo_flow_1.25 routing_flow_1.25" vType="DEFAULT_VEHTYPE" speedFactor="0.82" vaporized=""/>
    <tripinfo id="flow_1.26" depart="183.00" departLane="h11_0" departPos="5.10" departSpeed="8.67" departDelay="0.00" arrival="210.00" arrivalLane="E1_0" arrivalPos="91.61" arrivalSpeed="14.06" duration="27.00" routeLength="205.70" waitingTime="0.00" waitingCount="0" stopTime="0.00" timeLoss="7.84" rerouteNo="0" devices="tripinfo_flow_1.26 routing_flow_1.26" vType="DEFAULT_VEHTYPE" speedFactor="1.05" vaporized=""/>
    <tripinfo id="flow_1.27" depart="190.00" departLane="h11_0" departPos="5.10" departSpeed="7.64" departDelay="0.00" arrival="214.00" arrivalLane="E1_0" arrivalPos="91.61" arrivalSpeed="12.29" duration="24.00" routeLength="205.70" waitingTime="0.00" waitingCount="0" stopTime="0.00" timeLoss="2.27" rerouteNo="0" devices="tripinfo_flow_1.27 routing_flow_1.27" vType="DEFAULT_VEHTYPE" speedFactor="0.92" vaporized=""/>
    <tripinfo id="flow_2.23" depart="176.00" departLane="E4_0" departPos="5.10" departSpeed="14.63" departDelay="0.00" arrival="222.00" arrivalLane="v22_0" arrivalPos="96.24" arrivalSpeed="8.66" duration="46.00" routeLength="212.60" waitingTime="13.00" waitingCount="1" stopTime="0.00" timeLoss="26.31" rerouteNo="0" devices="tripinfo_flow_2.23 routing_flow_2.23" vType="DEFAULT_VEHTYPE" speedFactor="1.05" vaporized=""/>
    <tripinfo id="flow_2.25" depart="186.00" departLane="E4_1" departPos="5.10" departSpeed="14.05" departDelay="0.00" arrival="225.00" arrivalLane="v22_0" arrivalPos="96.24" arrivalSpeed="7.17" duration="39.00" routeLength="212.60" waitingTime="11.00" waitingCount="1" stopTime="0.00" timeLoss="18.32" rerouteNo="0" devices="tripinfo_flow_2.25 routing_flow_2.25" vType="DEFAULT_VEHTYPE" speedFactor="1.01" vaporized=""/>
    <tripinfo id="flow_2.26" depart="197.00" departLane="E4_1" departPos="5.10" departSpeed="15.69" departDelay="0.00" arrival="227.00" arrivalLane="v22_0" arrivalPos="96.24" arrivalSpeed="8.72" duration="30.00" routeLength="212.60" waitingTime="3.00" waitingCount="1" stopTime="0.00" timeLoss="11.28" rerouteNo="0" devices="tripinfo_flow_2.26 routing_flow_2.26" vType="DEFAULT_VEHTYPE" speedFactor="1.13" vaporized=""/>
    <tripinfo id="flow_2.21" depart="172.00" departLane="E4_0" departPos="5.10" departSpeed="13.50" departDelay="0.00" arrival="231.00" arrivalLane="v22_0" arrivalPos="96.24" arrivalSpeed="7.27" duration="59.00" routeLength="212.60" waitingTime="24.00" waitingCount="2" stopTime="0.00" timeLoss="37.70" rerouteNo="0" devices="tripinfo_flow_2.21 routing_flow_2.21" vType="DEFAULT_VEHTYPE" speedFactor="0.97" vaporized=""/>
    <tripinfo id="flow_2.17" depart="148.00" departLane="E4_0" departPos="5.10" departSpeed="15.10" departDelay="0.00" arrival="233.00" arrivalLane="v22_0" arrivalPos="96.24" arrivalSpeed="8.47" duration="85.00" routeLength="212.60" waitingTime="55.00" waitingCount="2" stopTime="0.00" timeLoss="65.80" rerouteNo="0" devices="tripinfo_flow_2.17 routing_flow_2.17" vType="DEFAULT_VEHTYPE" speedFactor="1.09" vaporized=""/>
    <tripinfo id="flow_1.28" depart="211.00" departLane="h11_0" departPos="5.10" departSpeed="6.57" departDelay="0.00" arrival="239.00" arrivalLane="E1_0" arrivalPos="91.61" arrivalSpeed="9.82" duration="28.00" routeLength="205.70" waitingTime="0.00" waitingCount="0" stopTime="0.00" timeLoss="3.12" rerouteNo="0" devices="tripinfo_flow_1.28 routing_flow_1.28" vType="DEFAULT_VEHTYPE" speedFactor="0.79" vaporized=""/>
    <tripinfo id="flow_1.29" depart="213.00" departLane="h11_0" departPos="5.10" departSpeed="5.78" departDelay="1.00" arrival="241.00" arrivalLane="E1_0" arrivalPos="91.61" arrivalSpeed="11.85" duration="28.00" routeLength="205.70" waitingTime="0.00" waitingCount="0" stopTime="0.00" timeLoss="6.33" rerouteNo="0" devices="tripinfo_flow_1.29 routing_flow_1.29" vType="DEFAULT_VEHTYPE" speedFactor="0.93" vaporized=""/>
    <tripinfo id="flow_1.30" depart="218.00" departLane="h11_0" departPos="5.10" departSpeed="7.96" departDelay="0.00" arrival="243.00" arrivalLane="E1_0" arrivalPos="91.61" arrivalSpeed="13.03" duration="25.00" routeLength="205.70" waitingTime="0.00" waitingCount="0" stopTime="0.00" timeLoss="3.53" rerouteNo="0" devices="tripinfo_flow_1.30 routing_flow_1.30" vType="DEFAULT_VEHTYPE" speedFactor="0.96" vaporized=""/>
    <tripinfo id="flow_2.27" depart="225.00" departLane="E4_1" departPos="5.10" departSpeed="12.09" departDelay="0.00" arrival="255.00" arrivalLane="v22_0" arrivalPos="96.24" arrivalSpeed="6.86" duration="30.00" routeLength="212.60" waitingTime="0.00" waitingCount="0" stopTime="0.00" timeLoss="5.80" rerouteNo="0" devices="tripinfo_flow_2.27 routing_flow_2.27" vType="DEFAULT_VEHTYPE" speedFactor="0.87" vaporized=""/>
    <tripinfo id="flow_2.28" depart="232.00" departLane="E4_0" departPos="5.10" departSpeed="14.93" departDelay="0.00" arrival="257.00" arrivalLane="v22_0" arrivalPos="96.24" arrivalSpeed="8.03" duration="25.00" routeLength="212.60" waitingTime="0.00" waitingCount="0" stopTime="0.00" timeLoss="5.44" rerouteNo="0" devices="tripinfo_flow_2.28 routing_flow_2.28" vType="DEFAULT_VEHTYPE" speedFactor="1.07" vaporized=""/>
    <tripinfo id="flow_2.29" depart="236.00" departLane="E4_1" departPos="5.10" departSpeed="14.75" departDelay="0.00" arrival="259.00" arrivalLane="v22_0" arrivalPos="96.24" arrivalSpeed="7.89" duration="23.00" routeLength="212.60" waitingTime="0.00" waitingCount="0" stopTime="0.00" timeLoss="3.30" rerouteNo="0" devices="tripinfo_flow_2.29 routing_flow_2.29" vType="DEFAULT_VEHTYPE" speedFactor="1.06" vaporized=""/>
    <tripinfo id="flow_1.31" depart="240.00" departLane="h11_0" departPos="5.10" departSpeed="9.54" departDelay="0.00" arrival="260.00" arrivalLane="E1_0" arrivalPos="91.61" arrivalSpeed="15.22" duration="20.00" routeLength="205.70" waitingTime="0.00" waitingCount="0" stopTime="0.00" timeLoss="2.76" rerouteNo="0" devices="tripinfo_flow_1.31 routing_flow_1.31" vType="DEFAULT_VEHTYPE" speedFactor="1.15" vaporized=""/>
    <tripinfo id="flow_2.15" depart="137.00" departLane="E4_0" departPos="5.10" departSpeed="12.42" departDelay="0.00" arrival="263.00" arrivalLane="v22_0" arrivalPos="96.24" arrivalSpeed="7.35" duration="126.00" routeLength="213.34" waitingTime="94.00" waitingCount="2" stopTime="0.00" timeLoss="102.94" rerouteNo="0" devices="tripinfo_flow_2.15 routing_flow_2.15" vType="DEFAULT_VEHTYPE" speedFactor="0.89" vaporized=""/>
    <tripinfo id="flow_1.32" depart="241.00" departLane="h11_0" departPos="5.10" departSpeed="5.71" departDelay="0.00" arrival="274.00" arrivalLane="E1_0" arrivalPos="91.61" arrivalSpeed="9.39" duration="33.00" routeLength="205.70" waitingTime="0.00" waitingCount="0" stopTime="0.00" timeLoss="3.83" rerouteNo="0" devices="tripinfo_flow_1.32 routing_flow_1.32" vType="DEFAULT_VEHTYPE" speedFactor="0.69" vaporized=""/>
    <tripinfo id="flow_2.30" depart="244.00" departLane="E4_1" departPos="5.10" departSpeed="14.42" departDelay="0.00" arrival="283.00" arrivalLane="v22_0" arrivalPos="96.24" arrivalSpeed="7.70" duration="39.00" routeLength="212.60" waitingTime="12.00" waitingCount="1" stopTime="0.00" timeLoss="18.65" rerouteNo="0" devices="tripinfo_flow_2.30 routing_flow_2.30" vType="DEFAULT_VEHTYPE" speedFactor="1.04" vaporized=""/>
    <tripinfo id="flow_2.31" depart="250.00" departLane="E4_0" departPos="5.10" departSpeed="14.67" departDelay="0.00" arrival="285.00" arrivalLane="v22_0" arrivalPos="96.24" arrivalSpeed="8.24" duration="35.00" routeLength="213.34" waitingTime="8.00" waitingCount="2" stopTime="0.00" timeLoss="15.31" rerouteNo="0" devices="tripinfo_flow_2.31 routing_flow_2.31" vType="DEFAULT_VEHTYPE" speedFactor="1.06" vaporized=""/>
    <tripinfo id="flow_1.33" depart="258.00" departLane="h11_0" departPos="5.10" departSpeed="7.72" departDelay="0.00" arrival="293.00" arrivalLane="E1_0" arrivalPos="91.61" arrivalSpeed="11.82" duration="35.00" routeLength="205.70" waitingTime="8.00" waitingCount="1" stopTime="0.00" timeLoss="13.39" rerouteNo="0" devices="tripinfo_flow_1.33 routing_flow_1.33" vType="DEFAULT_VEHTYPE" speedFactor="0.93" vaporized=""/>
    <tripinfo id="flow_1.34" depart="261.00" departLane="h11_0" departPos="5.10" departSpeed="7.74" departDelay="0.00" arrival="295.00" arrivalLane="E1_0" arrivalPos="91.61" arrivalSpeed="12.53" duration="34.00" routeLength="205.70" waitingTime="6.00" waitingCount="1" stopTime="0.00" timeLoss="12.34" rerouteNo="0" devices="tripinfo_flow_1.34 routing_flow_1.34" vType="DEFAULT_VEHTYPE" speedFactor="0.93" vaporized=""/>
    <tripinfo id="flow_1.35" depart="265.00" departLane="h11_0" departPos="5.10" departSpeed="9.08" departDelay="0.00" arrival="297.00" arrivalLane="E1_0" arrivalPos="91.61" arrivalSpeed="14.95" duration="32.00" routeLength="205.70" waitingTime="6.00" waitingCount="1" stopTime="0.00" timeLoss="13.18" rerouteNo="0" devices="tripinfo_flow_1.35 routing_flow_1.35" vType="DEFAULT_VEHTYPE" speedFactor="1.09" vaporized=""/>
    <tripinfo id="flow_1.36" depart="267.00" departLane="h11_0" departPos="5.10" departSpeed="8.83" departDelay="0.00" arrival="299.00" arrivalLane="E1_0" arrivalPos="91.61" arrivalSpeed="13.86" duration="32.00" routeLength="205.70" waitingTime="4.00" waitingCount="1" stopTime="0.00" timeLoss="12.57" rerouteNo="0" devices="tripinfo_flow_1.36 routing_flow_1.36" vType="DEFAULT_VEHTYPE" speedFactor="1.06" vaporized=""/>