<?xml version="1.0" encoding="UTF-8"?>

<!-- generated on 2025-04-23 16:38:31 by Eclipse SUMO sumo Version 1.22.0
<sumoConfiguration xmlns:xsi="http://www.w3.org/2001/XMLSchema-instance" xsi:noNamespaceSchemaLocation="http://sumo.dlr.de/xsd/sumoConfiguration.xsd">

    <input>
        <net-file value="nets/cliente3.net.xml"/>
        <route-files value="nets/cliente3.rou.xml"/>
    </input>

    <output>
        <tripinfo-output value="output/tripinfo_cliente3.xml"/>
    </output>

    <processing>
        <time-to-teleport value="-1"/>
        <waiting-time-memory value="1000"/>
        <max-depart-delay value="-1"/>
    </processing>

    <traci_server>
        <remote-port value="61266"/>
    </traci_server>

    <random_number>
        <random value="true"/>
    </random_number>

</sumoConfiguration>
-->

<tripinfos xmlns:xsi="http://www.w3.org/2001/XMLSchema-instance" xsi:noNamespaceSchemaLocation="http://sumo.dlr.de/xsd/tripinfo_file.xsd">
    <tripinfo id="flow_1.0" depart="0.00" departLane="v21_0" departPos="5.10" departSpeed="12.99" departDelay="0.00" arrival="18.00" arrivalLane="E4_0" arrivalPos="106.96" arrivalSpeed="11.73" duration="18.00" routeLength="219.25" waitingTime="0.00" waitingCount="0" stopTime="0.00" timeLoss="0.75" rerouteNo="0" devices="tripinfo_flow_1.0 routing_flow_1.0" vType="DEFAULT_VEHTYPE" speedFactor="0.94" vaporized=""/>
    <tripinfo id="flow_1.1" depart="2.00" departLane="v21_0" departPos="5.10" departSpeed="13.78" departDelay="0.00" arrival="20.00" arrivalLane="E4_0" arrivalPos="106.96" arrivalSpeed="13.37" duration="18.00" routeLength="219.25" waitingTime="0.00" waitingCount="0" stopTime="0.00" timeLoss="2.24" rerouteNo="0" devices="tripinfo_flow_1.1 routing_flow_1.1" vType="DEFAULT_VEHTYPE" speedFactor="1.06" vaporized=""/>
    <tripinfo id="flow_1.2" depart="8.00" departLane="v21_0" departPos="5.10" departSpeed="13.09" departDelay="0.00" arrival="26.00" arrivalLane="E4_0" arrivalPos="106.96" arrivalSpeed="12.74" duration="18.00" routeLength="219.25" waitingTime="0.00" waitingCount="0" stopTime="0.00" timeLoss="1.16" rerouteNo="0" devices="tripinfo_flow_1.2 routing_flow_1.2" vType="DEFAULT_VEHTYPE" speedFactor="0.94" vaporized=""/>
    <tripinfo id="flow_2.1" depart="18.00" departLane="E3_1" departPos="5.10" departSpeed="12.53" departDelay="0.00" arrival="38.00" arrivalLane="h22_0" arrivalPos="105.60" arrivalSpeed="11.27" duration="20.00" routeLength="208.55" waitingTime="0.00" waitingCount="0" stopTime="0.00" timeLoss="2.55" rerouteNo="0" devices="tripinfo_flow_2.1 routing_flow_2.1" vType="DEFAULT_VEHTYPE" speedFactor="0.90" vaporized=""/>
    <tripinfo id="flow_2.2" depart="19.00" departLane="E3_0" departPos="5.10" departSpeed="12.68" departDelay="0.00" arrival="40.00" arrivalLane="h22_0" arrivalPos="105.60" arrivalSpeed="11.61" duration="21.00" routeLength="208.55" waitingTime="0.00" waitingCount="0" stopTime="0.00" timeLoss="4.47" rerouteNo="0" devices="tripinfo_flow_2.2 routing_flow_2.2" vType="DEFAULT_VEHTYPE" speedFactor="0.91" vaporized=""/>
    <tripinfo id="flow_2.3" depart="27.00" departLane="E3_1" departPos="5.10" departSpeed="11.29" departDelay="0.00" arrival="47.00" arrivalLane="h22_0" arrivalPos="105.60" arrivalSpeed="10.51" duration="20.00" routeLength="208.55" waitingTime="0.00" waitingCount="0" stopTime="0.00" timeLoss="1.29" rerouteNo="0" devices="tripinfo_flow_2.3 routing_flow_2.3" vType="DEFAULT_VEHTYPE" speedFactor="0.81" vaporized=""/>
    <tripinfo id="flow_2.4" depart="28.00" departLane="E3_1" departPos="5.10" departSpeed="8.10" departDelay="0.00" arrival="49.00" arrivalLane="h22_0" arrivalPos="105.60" arrivalSpeed="14.79" duration="21.00" routeLength="208.55" waitingTime="0.00" waitingCount="0" stopTime="0.00" timeLoss="7.69" rerouteNo="0" devices="tripinfo_flow_2.4 routing_flow_2.4" vType="DEFAULT_VEHTYPE" speedFactor="1.18" vaporized=""/>
    <tripinfo id="flow_2.0" depart="7.00" departLane="E3_0" departPos="5.10" departSpeed="11.61" departDelay="0.00" arrival="52.00" arrivalLane="h22_0" arrivalPos="105.60" arrivalSpeed="11.17" duration="45.00" routeLength="209.16" waitingTime="18.00" waitingCount="2" stopTime="0.00" timeLoss="26.09" rerouteNo="0" devices="tripinfo_flow_2.0 routing_flow_2.0" vType="DEFAULT_VEHTYPE" speedFactor="0.84" vaporized=""/>
    <tripinfo id="flow_1.3" depart="20.00" departLane="v21_0" departPos="5.10" departSpeed="14.18" departDelay="0.00" arrival="54.00" arrivalLane="E4_0" arrivalPos="106.96" arrivalSpeed="13.13" duration="34.00" routeLength="219.25" waitingTime="12.00" waitingCount="1" stopTime="0.00" timeLoss="17.70" rerouteNo="0" devices="tripinfo_flow_1.3 routing_flow_1.3" vType="DEFAULT_VEHTYPE" speedFactor="1.02" vaporized=""/>
    <tripinfo id="flow_1.4" depart="25.00" departLane="v21_0" departPos="5.10" departSpeed="15.01" departDelay="0.00" arrival="55.00" arrivalLane="E4_0" arrivalPos="106.96" arrivalSpeed="14.27" duration="30.00" routeLength="219.25" waitingTime="9.00" waitingCount="1" stopTime="0.00" timeLoss="15.38" rerouteNo="0" devices="tripinfo_flow_1.4 routing_flow_1.4" vType="DEFAULT_VEHTYPE" speedFactor="1.08" vaporized=""/>
    <tripinfo id="flow_1.5" depart="26.00" departLane="v21_0" departPos="5.10" departSpeed="11.35" departDelay="0.00" arrival="57.00" arrivalLane="E4_0" arrivalPos="106.96" arrivalSpeed="13.44" duration="31.00" routeLength="219.25" waitingTime="8.00" waitingCount="1" stopTime="0.00" timeLoss="15.52" rerouteNo="0" devices="tripinfo_flow_1.5 routing_flow_1.5" vType="DEFAULT_VEHTYPE" speedFactor="1.02" vaporized=""/>
    <tripinfo id="flow_1.6" depart="37.00" departLane="v21_0" departPos="5.10" departSpeed="14.16" departDelay="0.00" arrival="59.00" arrivalLane="E4_0" arrivalPos="106.96" arrivalSpeed="13.66" duration="22.00" routeLength="219.25" waitingTime="0.00" waitingCount="0" stopTime="0.00" timeLoss="6.45" rerouteNo="0" devices="tripinfo_flow_1.6 routing_flow_1.6" vType="DEFAULT_VEHTYPE" speedFactor="1.02" vaporized=""/>
    <tripinfo id="flow_1.7" depart="42.00" departLane="v21_0" departPos="5.10" departSpeed="13.72" departDelay="0.00" arrival="61.00" arrivalLane="E4_0" arrivalPos="106.96" arrivalSpeed="12.43" duration="19.00" routeLength="219.25" waitingTime="0.00" waitingCount="0" stopTime="0.00" timeLoss="2.96" rerouteNo="0" devices="tripinfo_flow_1.7 routing_flow_1.7" vType="DEFAULT_VEHTYPE" speedFactor="0.99" vaporized=""/>
    <tripinfo id="flow_1.8" depart="43.00" departLane="v21_0" departPos="5.10" departSpeed="10.18" departDelay="0.00" arrival="63.00" arrivalLane="E4_0" arrivalPos="106.96" arrivalSpeed="15.30" duration="20.00" routeLength="219.25" waitingTime="0.00" waitingCount="0" stopTime="0.00" timeLoss="5.22" rerouteNo="0" devices="tripinfo_flow_1.8 routing_flow_1.8" vType="DEFAULT_VEHTYPE" speedFactor="1.11" vaporized=""/>
    <tripinfo id="flow_2.5" depart="41.00" departLane="E3_0" departPos="5.10" departSpeed="15.11" departDelay="0.00" arrival="68.00" arrivalLane="h22_0" arrivalPos="105.60" arrivalSpeed="13.83" duration="27.00" routeLength="209.16" waitingTime="5.00" waitingCount="1" stopTime="0.00" timeLoss="12.43" rerouteNo="0" devices="tripinfo_flow_2.5 routing_flow_2.5" vType="DEFAULT_VEHTYPE" speedFactor="1.09" vaporized=""/>
    <tripinfo id="flow_2.6" depart="57.00" departLane="E3_1" departPos="5.10" departSpeed="12.74" departDelay="0.00" arrival="75.00" arrivalLane="h22_0" arrivalPos="105.60" arrivalSpeed="11.49" duration="18.00" routeLength="208.55" waitingTime="0.00" waitingCount="0" stopTime="0.00" timeLoss="1.02" rerouteNo="0" devices="tripinfo_flow_2.6 routing_flow_2.6" vType="DEFAULT_VEHTYPE" speedFactor="0.92" vaporized=""/>
    <tripinfo id="flow_2.7" depart="63.00" departLane="E3_1" departPos="5.10" departSpeed="14.29" departDelay="0.00" arrival="79.00" arrivalLane="h22_0" arrivalPos="105.60" arrivalSpeed="13.34" duration="16.00" routeLength="208.55" waitingTime="0.00" waitingCount="0" stopTime="0.00" timeLoss="0.86" rerouteNo="0" devices="tripinfo_flow_2.7 routing_flow_2.7" vType="DEFAULT_VEHTYPE" speedFactor="1.03" vaporized=""/>
    <tripinfo id="flow_1.9" depart="54.00" departLane="v21_0" departPos="5.10" departSpeed="14.78" departDelay="0.00" arrival="84.00" arrivalLane="E4_0" arrivalPos="106.96" arrivalSpeed="13.51" duration="30.00" routeLength="219.25" waitingTime="7.00" waitingCount="1" stopTime="0.00" timeLoss="14.26" rerouteNo="0" devices="tripinfo_flow_1.9 routing_flow_1.9" vType="DEFAULT_VEHTYPE" speedFactor="1.06" vaporized=""/>
    <tripinfo id="flow_1.10" depart="66.00" departLane="v21_0" departPos="5.10" departSpeed="11.84" departDelay="0.00" arrival="87.00" arrivalLane="E4_0" arrivalPos="106.96" arrivalSpeed="10.77" duration="21.00" routeLength="219.25" waitingTime="0.00" waitingCount="0" stopTime="0.00" timeLoss="2.02" rerouteNo="0" devices="tripinfo_flow_1.10 routing_flow_1.10" vType="DEFAULT_VEHTYPE" speedFactor="0.85" vaporized=""/>
    <tripinfo id="flow_1.11" depart="69.00" departLane="v21_0" departPos="5.10" departSpeed="14.69" departDelay="0.00" arrival="89.00" arrivalLane="E4_0" arrivalPos="106.96" arrivalSpeed="14.32" duration="20.00" routeLength="219.25" waitingTime="0.00" waitingCount="0" stopTime="0.00" timeLoss="4.19" rerouteNo="0" devices="tripinfo_flow_1.11 routing_flow_1.11" vType="DEFAULT_VEHTYPE" speedFactor="1.06" vaporized=""/>
    <tripinfo id="flow_1.12" depart="78.00" departLane="v21_0" departPos="5.10" departSpeed="15.69" departDelay="0.00" arrival="93.00" arrivalLane="E4_0" arrivalPos="106.96" arrivalSpeed="14.41" duration="15.00" routeLength="219.25" waitingTime="0.00" waitingCount="0" stopTime="0.00" timeLoss="0.64" rerouteNo="0" devices="tripinfo_flow_1.12 routing_flow_1.12" vType="DEFAULT_VEHTYPE" speedFactor="1.13" vaporized=""/>
    <tripinfo id="flow_1.13" depart="87.00" departLane="v21_0" departPos="5.10" departSpeed="15.02" departDelay="0.00" arrival="103.00" arrivalLane="E4_0" arrivalPos="106.96" arrivalSpeed="13.94" duration="16.00" routeLength="219.25" waitingTime="0.00" waitingCount="0" stopTime="0.00" timeLoss="0.84" rerouteNo="0" devices="tripinfo_flow_1.13 routing_flow_1.13" vType="DEFAULT_VEHTYPE" speedFactor="1.08" vaporized=""/>
    <tripinfo id="flow_1.14" depart="88.00" departLane="v21_0" departPos="5.10" departSpeed="11.71" departDelay="0.00" arrival="105.00" arrivalLane="E4_0" arrivalPos="106.96" arrivalSpeed="14.49" duration="17.00" routeLength="219.25" waitingTime="0.00" waitingCount="0" stopTime="0.00" timeLoss="1.67" rerouteNo="0" devices="tripinfo_flow_1.14 routing_flow_1.14" vType="DEFAULT_VEHTYPE" speedFactor="1.09" vaporized=""/>
    <tripinfo id="flow_2.8" depart="68.00" departLane="E3_1" departPos="5.10" departSpeed="16.21" departDelay="0.00" arrival="113.00" arrivalLane="h22_0" arrivalPos="105.60" arrivalSpeed="15.16" duration="45.00" routeLength="208.55" waitingTime="25.00" waitingCount="1" stopTime="0.00" timeLoss="31.99" rerouteNo="0" devices="tripinfo_flow_2.8 routing_flow_2.8" vType="DEFAULT_VEHTYPE" speedFactor="1.17" vaporized=""/>
    <tripinfo id="flow_2.10" depart="73.00" departLane="E3_1" departPos="5.10" departSpeed="13.75" departDelay="0.00" arrival="116.00" arrivalLane="h22_0" arrivalPos="105.60" arrivalSpeed="13.36" duration="43.00" routeLength="208.55" waitingTime="20.00" waitingCount="1" stopTime="0.00" timeLoss="27.36" rerouteNo="0" devices="tripinfo_flow_2.10 routing_flow_2.10" vType="DEFAULT_VEHTYPE" speedFactor="0.99" vaporized=""/>
    <tripinfo id="flow_2.12" depart="80.00" departLane="E3_1" departPos="5.10" departSpeed="13.23" departDelay="0.00" arrival="118.00" arrivalLane="h22_0" arrivalPos="105.60" arrivalSpeed="12.77" duration="38.00" routeLength="208.55" waitingTime="14.00" waitingCount="1" stopTime="0.00" timeLoss="21.84" rerouteNo="0" devices="tripinfo_flow_2.12 routing_flow_2.12" vType="DEFAULT_VEHTYPE" speedFactor="0.95" vaporized=""/>
    <tripinfo id="flow_2.13" depart="82.00" departLane="E3_0" departPos="5.10" departSpeed="15.49" departDelay="0.00" arrival="120.00" arrivalLane="h22_0" arrivalPos="105.60" arrivalSpeed="14.98" duration="38.00" routeLength="208.55" waitingTime="13.00" waitingCount="2" stopTime="0.00" timeLoss="24.19" rerouteNo="0" devices="tripinfo_flow_2.13 routing_flow_2.13" vType="DEFAULT_VEHTYPE" speedFactor="1.12" vaporized=""/>
    <tripinfo id="flow_2.11" depart="74.00" departLane="E3_0" departPos="5.10" departSpeed="15.47" departDelay="0.00" arrival="123.00" arrivalLane="h22_0" arrivalPos="105.60" arrivalSpeed="15.14" duration="49.00" routeLength="208.55" waitingTime="25.00" waitingCount="2" stopTime="0.00" timeLoss="35.23" rerouteNo="0" devices="tripinfo_flow_2.11 routing_flow_2.11" vType="DEFAULT_VEHTYPE" speedFactor="1.11" vaporized=""/>
    <tripinfo id="flow_1.15" depart="97.00" departLane="v21_0" departPos="5.10" departSpeed="14.97" departDelay="0.00" arrival="128.00" arrivalLane="E4_0" arrivalPos="106.96" arrivalSpeed="13.84" duration="31.00" routeLength="219.25" waitingTime="10.00" waitingCount="1" stopTime="0.00" timeLoss="16.33" rerouteNo="0" devices="tripinfo_flow_1.15 routing_flow_1.15" vType="DEFAULT_VEHTYPE" speedFactor="1.08" vaporized=""/>
    <tripinfo id="flow_1.16" depart="105.00" departLane="v21_0" departPos="5.10" departSpeed="16.66" departDelay="0.00" arrival="130.00" arrivalLane="E4_0" arrivalPos="106.96" arrivalSpeed="15.74" duration="25.00" routeLength="219.25" waitingTime="3.00" waitingCount="1" stopTime="0.00" timeLoss="11.39" rerouteNo="0" devices="tripinfo_flow_1.16 routing_flow_1.16" vType="DEFAULT_VEHTYPE" speedFactor="1.20" vaporized=""/>
    <tripinfo id="flow_1.17" depart="109.00" departLane="v21_0" departPos="5.10" departSpeed="13.22" departDelay="0.00" arrival="133.00" arrivalLane="E4_0" arrivalPos="106.96" arrivalSpeed="13.03" duration="24.00" routeLength="219.25" waitingTime="0.00" waitingCount="0" stopTime="0.00" timeLoss="6.81" rerouteNo="0" devices="tripinfo_flow_1.17 routing_flow_1.17" vType="DEFAULT_VEHTYPE" speedFactor="0.95" vaporized=""/>
    <tripinfo id="flow_1.18" depart="114.00" departLane="v21_0" departPos="5.10" departSpeed="11.58" departDelay="0.00" arrival="136.00" arrivalLane="E4_0" arrivalPos="106.96" arrivalSpeed="11.24" duration="22.00" routeLength="219.25" waitingTime="0.00" waitingCount="0" stopTime="0.00" timeLoss="2.59" rerouteNo="0" devices="tripinfo_flow_1.18 routing_flow_1.18" vType="DEFAULT_VEHTYPE" speedFactor="0.83" vaporized=""/>
    <tripinfo id="flow_1.19" depart="115.00" departLane="v21_0" departPos="5.10" departSpeed="7.75" departDelay="0.00" arrival="138.00" arrivalLane="E4_0" arrivalPos="106.96" arrivalSpeed="12.25" duration="23.00" routeLength="219.25" waitingTime="0.00" waitingCount="0" stopTime="0.00" timeLoss="5.06" rerouteNo="0" devices="tripinfo_flow_1.19 routing_flow_1.19" vType="DEFAULT_VEHTYPE" speedFactor="0.91" vaporized=""/>
    <tripinfo id="flow_2.14" depart="110.00" departLane="E3_1" departPos="5.10" departSpeed="15.72" departDelay="0.00" arrival="143.00" arrivalLane="h22_0" arrivalPos="105.60" arrivalSpeed="14.65" duration="33.00" routeLength="208.55" waitingTime="12.00" waitingCount="1" stopTime="0.00" timeLoss="19.57" rerouteNo="0" devices="tripinfo_flow_2.14 routing_flow_2.14" vType="DEFAULT_VEHTYPE" speedFactor="1.13" vaporized=""/>
    <tripinfo id="flow_2.9" depart="72.00" departLane="E3_0" departPos="5.10" departSpeed="14.47" departDelay="0.00" arrival="147.00" arrivalLane="h22_0" arrivalPos="105.60" arrivalSpeed="13.37" duration="75.00" routeLength="209.16" waitingTime="52.00" waitingCount="2" stopTime="0.00" timeLoss="59.64" rerouteNo="0" devices="tripinfo_flow_2.9 routing_flow_2.9" vType="DEFAULT_VEHTYPE" speedFactor="1.04" vaporized=""/>
    <tripinfo id="flow_2.15" depart="137.00" departLane="E3_1" departPos="5.10" departSpeed="12.42" departDelay="0.00" arrival="155.00" arrivalLane="h22_0" arrivalPos="105.60" arrivalSpeed="12.26" duration="18.00" routeLength="208.55" waitingTime="0.00" waitingCount="0" stopTime="0.00" timeLoss="0.95" rerouteNo="0" devices="tripinfo_flow_2.15 routing_flow_2.15" vType="DEFAULT_VEHTYPE" speedFactor="0.89" vaporized=""/>
    <tripinfo id="flow_1.20" depart="127.00" departLane="v21_0" departPos="5.10" departSpeed="15.92" departDelay="0.00" arrival="158.00" arrivalLane="E4_0" arrivalPos="106.96" arrivalSpeed="15.65" duration="31.00" routeLength="219.25" waitingTime="10.00" waitingCount="1" stopTime="0.00" timeLoss="17.14" rerouteNo="0" devices="tripinfo_flow_1.20 routing_flow_1.20" vType="DEFAULT_VEHTYPE" speedFactor="1.15" vaporized=""/>
    <tripinfo id="flow_1.21" depart="142.00" departLane="v21_0" departPos="5.10" departSpeed="11.79" departDelay="0.00" arrival="162.00" arrivalLane="E4_0" arrivalPos="106.96" arrivalSpeed="11.33" duration="20.00" routeLength="219.25" waitingTime="0.00" waitingCount="0" stopTime="0.00" timeLoss="1.41" rerouteNo="0" devices="tripinfo_flow_1.21 routing_flow_1.21" vType="DEFAULT_VEHTYPE" speedFactor="0.85" vaporized=""/>
    <tripinfo id="flow_1.22" depart="148.00" departLane="v21_0" departPos="5.10" departSpeed="13.82" departDelay="0.00" arrival="165.00" arrivalLane="E4_0" arrivalPos="106.96" arrivalSpeed="12.81" duration="17.00" routeLength="219.25" waitingTime="0.00" waitingCount="0" stopTime="0.00" timeLoss="0.86" rerouteNo="0" devices="tripinfo_flow_1.22 routing_flow_1.22" vType="DEFAULT_VEHTYPE" speedFactor="0.99" vaporized=""/>
    <tripinfo id="flow_1.23" depart="173.00" departLane="v21_0" departPos="5.10" departSpeed="13.90" departDelay="0.00" arrival="190.00" arrivalLane="E4_0" arrivalPos="106.96" arrivalSpeed="12.84" duration="17.00" routeLength="219.25" waitingTime="0.00" waitingCount="0" stopTime="0.00" timeLoss="0.91" rerouteNo="0" devices="tripinfo_flow_1.23 routing_flow_1.23" vType="DEFAULT_VEHTYPE" speedFactor="1.00" vaporized=""/>
    <tripinfo id="flow_1.24" depart="176.00" departLane="v21_0" departPos="5.10" departSpeed="14.26" departDelay="0.00" arrival="193.00" arrivalLane="E4_0" arrivalPos="106.96" arrivalSpeed="14.00" duration="17.00" routeLength="219.25" waitingTime="0.00" waitingCount="0" stopTime="0.00" timeLoss="0.81" rerouteNo="0" devices="tripinfo_flow_1.24 routing_flow_1.24" vType="DEFAULT_VEHTYPE" speedFactor="1.03" vaporized=""/>
    <tripinfo id="flow_1.25" depart="180.00" departLane="v21_0" departPos="5.10" departSpeed="11.45" departDelay="0.00" arrival="201.00" arrivalLane="E4_0" arrivalPos="106.96" arrivalSpeed="10.35" duration="21.00" routeLength="219.25" waitingTime="0.00" waitingCount="0" stopTime="0.00" timeLoss="1.23" rerouteNo="0" devices="tripinfo_flow_1.25 routing_flow_1.25" vType="DEFAULT_VEHTYPE" speedFactor="0.82" vaporized=""/>
    <tripinfo id="flow_1.26" depart="183.00" departLane="v21_0" departPos="5.10" departSpeed="14.53" departDelay="0.00" arrival="202.00" arrivalLane="E4_0" arrivalPos="106.96" arrivalSpeed="13.37" duration="19.00" routeLength="219.25" waitingTime="0.00" waitingCount="0" stopTime="0.00" timeLoss="3.80" rerouteNo="0" devices="tripinfo_flow_1.26 routing_flow_1.26" vType="DEFAULT_VEHTYPE" speedFactor="1.05" vaporized=""/>
    <tripinfo id="flow_1.27" depart="190.00" departLane="v21_0" departPos="5.10" departSpeed="12.74" departDelay="0.00" arrival="209.00" arrivalLane="E4_0" arrivalPos="106.96" arrivalSpeed="11.63" duration="19.00" routeLength="219.25" waitingTime="0.00" waitingCount="0" stopTime="0.00" timeLoss="0.92" rerouteNo="0" devices="tripinfo_flow_1.27 routing_flow_1.27" vType="DEFAULT_VEHTYPE" speedFactor="0.92" vaporized=""/>
    <tripinfo id="flow_2.16" depart="139.00" departLane="E3_1" departPos="5.10" departSpeed="13.32" departDelay="0.00" arrival="219.00" arrivalLane="h22_0" arrivalPos="105.60" arrivalSpeed="13.52" duration="80.00" routeLength="208.55" waitingTime="57.00" waitingCount="1" stopTime="0.00" timeLoss="64.47" rerouteNo="0" devices="tripinfo_flow_2.16 routing_flow_2.16" vType="DEFAULT_VEHTYPE" speedFactor="1.01" vaporized=""/>
    <tripinfo id="flow_2.18" depart="153.00" departLane="E3_1" departPos="5.10" departSpeed="14.74" departDelay="0.00" arrival="220.00" arrivalLane="h22_0" arrivalPos="105.60" arrivalSpeed="14.39" duration="67.00" routeLength="208.55" waitingTime="46.00" waitingCount="1" stopTime="0.00" timeLoss="52.83" rerouteNo="0" devices="tripinfo_flow_2.18 routing_flow_2.18" vType="DEFAULT_VEHTYPE" speedFactor="1.06" vaporized=""/>
    <tripinfo id="flow_2.20" depart="165.00" departLane="E3_1" departPos="5.10" departSpeed="14.37" departDelay="0.00" arrival="223.00" arrivalLane="h22_0" arrivalPos="105.60" arrivalSpeed="13.42" duration="58.00" routeLength="208.55" waitingTime="35.00" waitingCount="1" stopTime="0.00" timeLoss="42.57" rerouteNo="0" devices="tripinfo_flow_2.20 routing_flow_2.20" vType="DEFAULT_VEHTYPE" speedFactor="1.03" vaporized=""/>
    <tripinfo id="flow_2.22" depart="174.00" departLane="E3_1" departPos="5.10" departSpeed="12.73" departDelay="0.00" arrival="225.00" arrivalLane="h22_0" arrivalPos="105.60" arrivalSpeed="11.70" duration="51.00" routeLength="208.55" waitingTime="27.00" waitingCount="1" stopTime="0.00" timeLoss="34.24" rerouteNo="0" devices="tripinfo_flow_2.22 routing_flow_2.22" vType="DEFAULT_VEHTYPE" speedFactor="0.92" vaporized=""/>
    <tripinfo id="flow_2.24" depart="178.00" departLane="E3_1" departPos="5.10" departSpeed="12.47" departDelay="0.00" arrival="227.00" arrivalLane="h22_0" arrivalPos="105.60" arrivalSpeed="11.81" duration="49.00" routeLength="208.55" waitingTime="25.00" waitingCount="1" stopTime="0.00" timeLoss="32.08" rerouteNo="0" devices="tripinfo_flow_2.24 routing_flow_2.24" vType="DEFAULT_VEHTYPE" speedFactor="0.90" vaporized=""/>
    <tripinfo id="flow_2.26" depart="197.00" departLane="E3_1" departPos="5.10" departSpeed="15.69" departDelay="0.00" arrival="229.00" arrivalLane="h22_0" arrivalPos="105.60" arrivalSpeed="14.64" duration="32.00" routeLength="208.55" waitingTime="8.00" waitingCount="1" stopTime="0.00" timeLoss="18.07" rerouteNo="0" devices="tripinfo_flow_2.26 routing_flow_2.26" vType="DEFAULT_VEHTYPE" speedFactor="1.13" vaporized=""/>
    <tripinfo id="flow_1.28" depart="211.00" departLane="v21_0" departPos="5.10" departSpeed="10.95" departDelay="0.00" arrival="234.00" arrivalLane="E4_0" arrivalPos="106.96" arrivalSpeed="10.38" duration="23.00" routeLength="219.25" waitingTime="0.00" waitingCount="0" stopTime="0.00" timeLoss="2.85" rerouteNo="0" devices="tripinfo_flow_1.28 routing_flow_1.28" vType="DEFAULT_VEHTYPE" speedFactor="0.79" vaporized=""/>
    <tripinfo id="flow_1.29" depart="212.00" departLane="v21_0" departPos="5.10" departSpeed="7.43" departDelay="0.00" arrival="236.00" arrivalLane="E4_0" arrivalPos="106.96" arrivalSpeed="11.80" duration="24.00" routeLength="219.25" waitingTime="0.00" waitingCount="0" stopTime="0.00" timeLoss="6.68" rerouteNo="0" devices="tripinfo_flow_1.29 routing_flow_1.29" vType="DEFAULT_VEHTYPE" speedFactor="0.93" vaporized=""/>
    <tripinfo id="flow_1.30" depart="218.00" departLane="v21_0" departPos="5.10" departSpeed="13.28" departDelay="0.00" arrival="238.00" arrivalLane="E4_0" arrivalPos="106.96" arrivalSpeed="13.08" duration="20.00" routeLength="219.25" waitingTime="0.00" waitingCount="0" stopTime="0.00" timeLoss="2.78" rerouteNo="0" devices="tripinfo_flow_1.30 routing_flow_1.30" vType="DEFAULT_VEHTYPE" speedFactor="0.96" vaporized=""/>
    <tripinfo id="flow_1.31" depart="240.00" departLane="v21_0" departPos="5.10" departSpeed="15.92" departDelay="0.00" arrival="255.00" arrivalLane="E4_0" arrivalPos="106.96" arrivalSpeed="14.64" duration="15.00" routeLength="219.25" waitingTime="0.00" waitingCount="0" stopTime="0.00" timeLoss="0.58" rerouteNo="0" devices="tripinfo_flow_1.31 routing_flow_1.31" vType="DEFAULT_VEHTYPE" speedFactor="1.15" vaporized=""/>
    <tripinfo id="flow_1.32" depart="241.00" departLane="v21_0" departPos="5.10" departSpeed="9.65" departDelay="0.00" arrival="266.00" arrivalLane="E4_0" arrivalPos="106.96" arrivalSpeed="8.58" duration="25.00" routeLength="219.25" waitingTime="0.00" waitingCount="0" stopTime="0.00" timeLoss="1.67" rerouteNo="0" devices="tripinfo_flow_1.32 routing_flow_1.32" vType="DEFAULT_VEHTYPE" speedFactor="0.69" vaporized=""/>
    <tripinfo id="flow_2.25" depart="186.00" departLane="E3_0" departPos="5.10" departSpeed="14.05" departDelay="0.00" arrival="274.00" arrivalLane="h22_0" arrivalPos="105.60" arrivalSpeed="13.60" duration="88.00" routeLength="208.55" waitingTime="56.00" waitingCount="3" stopTime="0.00" timeLoss="73.08" rerouteNo="0" devices="tripinfo_flow_2.25 routing_flow_2.25" vType="DEFAULT_VEHTYPE" speedFactor="1.01" vaporized=""/>
    <tripinfo id="flow_2.21" depart="172.00" departLane="E3_0" departPos="5.10" departSpeed="13.50" departDelay="0.00" arrival="276.00" arrivalLane="h22_0" arrivalPos="105.60" arrivalSpeed="12.59" duration="104.00" routeLength="208.55" waitingTime="73.00" waitingCount="3" stopTime="0.00" timeLoss="88.54" rerouteNo="0" devices="tripinfo_flow_2.21 routing_flow_2.21" vType="DEFAULT_VEHTYPE" speedFactor="0.97" vaporized=""/>
    <tripinfo id="flow_2.27" depart="225.00" departLane="E3_1" departPos="5.10" departSpeed="12.09" departDelay="0.00" arrival="279.00" arrivalLane="h22_0" arrivalPos="105.60" arrivalSpeed="11.55" duration="54.00" routeLength="208.55" waitingTime="29.00" waitingCount="1" stopTime="0.00" timeLoss="36.73" rerouteNo="0" devices="tripinfo_flow_2.27 routing_flow_2.27" vType="DEFAULT_VEHTYPE" speedFactor="0.87" vaporized=""/>
    <tripinfo id="flow_2.29" depart="236.00" departLane="E3_1" departPos="5.10" departSpeed="14.75" departDelay="0.00" arrival="281.00" arrivalLane="h22_0" arrivalPos="105.60" arrivalSpeed="14.66" duration="45.00" routeLength="208.55" waitingTime="20.00" waitingCount="1" stopTime="0.00" timeLoss="30.31" rerouteNo="0" devices="tripinfo_flow_2.29 routing_flow_2.29" vType="DEFAULT_VEHTYPE" speedFactor="1.06" vaporized=""/>
    <tripinfo id="flow_2.31" depart="250.00" departLane="E3_1" departPos="5.10" departSpeed="14.67" departDelay="0.00" arrival="283.00" arrivalLane="h22_0" arrivalPos="105.60" arrivalSpeed="13.78" duration="33.00" routeLength="208.55" waitingTime="9.00" waitingCount="1" stopTime="0.00" timeLoss="18.05" rerouteNo="0" devices="tripinfo_flow_2.31 routing_flow_2.31" vType="DEFAULT_VEHTYPE" speedFactor="1.06" vaporized=""/>
    <tripinfo id="flow_1.33" depart="258.00" departLane="v21_0" departPos="5.10" departSpeed="12.86" departDelay="0.00" arrival="289.00" arrivalLane="E4_0" arrivalPos="106.96" arrivalSpeed="11.60" duration="31.00" routeLength="219.25" waitingTime="8.00" waitingCount="1" stopTime="0.00" timeLoss="13.64" rerouteNo="0" devices="tripinfo_flow_1.33 routing_flow_1.33" vType="DEFAULT_VEHTYPE" speedFactor="0.93" vaporized=""/>
    <tripinfo id="flow_1.34" depart="261.00" departLane="v21_0" departPos="5.10" departSpeed="12.90" departDelay="0.00" arrival="291.00" arrivalLane="E4_0" arrivalPos="106.96" arrivalSpeed="12.16" duration="30.00" routeLength="219.25" waitingTime="6.00" waitingCount="1" stopTime="0.00" timeLoss="12.63" rerouteNo="0" devices="tripinfo_flow_1.34 routing_flow_1.34" vType="DEFAULT_VEHTYPE" speedFactor="0.93" vaporized=""/>
    <tripinfo id="flow_1.35" depart="265.00" departLane="v21_0" departPos="5.10" departSpeed="15.13" departDelay="0.00" arrival="293.00" arrivalLane="E4_0" arrivalPos="106.96" arrivalSpeed="14.77" duration="28.00" routeLength="219.25" waitingTime="4.00" waitingCount="1" stopTime="0.00" timeLoss="12.75" rerouteNo="0" devices="tripinfo_flow_1.35 routing_flow_1.35" vType="DEFAULT_VEHTYPE" speedFactor="1.09" vaporized=""/>
    <tripinfo id="flow_1.36" depart="267.00" departLane="v21_0" departPos="5.10" departSpeed="14.73" departDelay="0.00" arrival="294.00" arrivalLane="E4_0" arrivalPos="106.96" arrivalSpeed="13.84" duration="27.00" routeLength="219.25" waitingTime="3.00" waitingCount="1" stopTime="0.00" timeLoss="12.07" rerouteNo="0" devices="tripinfo_flow_1.36 routing_flow_1.36" vType="DEFAULT_VEHTYPE" speedFactor="1.06" vaporized=""/>
    <tripinfo id="flow_1.37" depart="278.00" departLane="v21_0" departPos="5.10" departSpeed="14.86" departDelay="0.00" arrival="296.00" arrivalLane="E4_0" arrivalPos="106.96" arrivalSpeed="14.03" duration="18.00" routeLength="219.25" waitingTime="0.00" waitingCount="0" stopTime="0.00" timeLoss="2.90" rerouteNo="0" devices="tripinfo_flow_1.37 routing_flow_1.37" vType="DEFAULT_VEHTYPE" speedFactor="1.07" vaporized=""/>
    <tripinfo id="flow_1.38" depart="284.00" departLane="v21_0" departPos="5.10" departSpeed="15.70" departDelay="0.00" arrival="299.00" arrivalLane="E4_0" arrivalPos="106.96" arrivalSpeed="15.11" duration="15.00" routeLength="219.25" waitingTime="0.00" waitingCount="0" stopTime="0.00" timeLoss="0.59" rerouteNo="0" devices="tripinfo_flow_1.38 routing_flow_1.38" vType="DEFAULT_VEHTYPE" speedFactor="1.13" vaporized=""/>
    <tripinfo id="flow_1.39" depart="290.00" departLane="v21_0" departPos="5.10" departSpeed="14.88" departDelay="0.00" arrival="306.00" arrivalLane="E4_0" arrivalPos="106.96" arrivalSpeed="14.53" duration="16.00" routeLength="219.25" waitingTime="0.00" waitingCount="0" stopTime="0.00" timeLoss="0.52" rerouteNo="0" devices="tripinfo_flow_1.39 routing_flow_1.39" vType="DEFAULT_VEHTYPE" speedFactor="1.07" vaporized=""/>
    <tripinfo id="flow_2.30" depart="244.00" departLane="E3_0" departPos="5.10" departSpeed="14.42" departDelay="0.00" arrival="313.00" arrivalLane="h22_0" arrivalPos="105.60" arrivalSpeed="14.22" duration="69.00" routeLength="208.55" waitingTime="44.00" waitingCount="2" stopTime="0.00" timeLoss="54.28" rerouteNo="0" devices="tripinfo_flow_2.30 routing_flow_2.30" vType="DEFAULT_VEHTYPE" speedFactor="1.04" vaporized=""/>